   4   4   0   0
  0.4258216E+02  0.6222060E-09  0.6222060E-09  0.6222060E-09  0.5000000E-15
  1.000000000000000E-004
  CAR 
 unknown system                          
      7.29623652    -31.24992462  301      1.45447757      1.00000000
    -31.250  0.0000E+00  0.0000E+00
    -31.121  0.0000E+00  0.0000E+00
    -30.993  0.0000E+00  0.0000E+00
    -30.864  0.0000E+00  0.0000E+00
    -30.736  0.0000E+00  0.0000E+00
    -30.607  0.0000E+00  0.0000E+00
    -30.479  0.0000E+00  0.0000E+00
    -30.351  0.0000E+00  0.0000E+00
    -30.222  0.0000E+00  0.0000E+00
    -30.094  0.0000E+00  0.0000E+00
    -29.965  0.0000E+00  0.0000E+00
    -29.837  0.0000E+00  0.0000E+00
    -29.708  0.1769E-09  0.2273E-10
    -29.580  0.2155E-02  0.2769E-03
    -29.451  0.2713E+00  0.3513E-01
    -29.323  0.3788E-01  0.4000E-01
    -29.194  0.2538E-06  0.4000E-01
    -29.066  0.0000E+00  0.4000E-01
    -28.937  0.0000E+00  0.4000E-01
    -28.809  0.0000E+00  0.4000E-01
    -28.680  0.0000E+00  0.4000E-01
    -28.552  0.0000E+00  0.4000E-01
    -28.423  0.0000E+00  0.4000E-01
    -28.295  0.0000E+00  0.4000E-01
    -28.166  0.0000E+00  0.4000E-01
    -28.038  0.0000E+00  0.4000E-01
    -27.909  0.0000E+00  0.4000E-01
    -27.781  0.0000E+00  0.4000E-01
    -27.652  0.0000E+00  0.4000E-01
    -27.524  0.0000E+00  0.4000E-01
    -27.395  0.0000E+00  0.4000E-01
    -27.267  0.0000E+00  0.4000E-01
    -27.138  0.2592E-16  0.4000E-01
    -27.010  0.4914E-06  0.4000E-01
    -26.881  0.2942E-01  0.4378E-01
    -26.753  0.1258E+00  0.5994E-01
    -26.624  0.4601E-03  0.6000E-01
    -26.496  0.1319E-10  0.6000E-01
    -26.367  0.0000E+00  0.6000E-01
    -26.239  0.0000E+00  0.6000E-01
    -26.110  0.0000E+00  0.6000E-01
    -25.982  0.0000E+00  0.6000E-01
    -25.853  0.0000E+00  0.6000E-01
    -25.725  0.0000E+00  0.6000E-01
    -25.596  0.0000E+00  0.6000E-01
    -25.468  0.0000E+00  0.6000E-01
    -25.340  0.0000E+00  0.6000E-01
    -25.211  0.0000E+00  0.6000E-01
    -25.083  0.0000E+00  0.6000E-01
    -24.954  0.0000E+00  0.6000E-01
    -24.826  0.0000E+00  0.6000E-01
    -24.697  0.0000E+00  0.6000E-01
    -24.569  0.0000E+00  0.6000E-01
    -24.440  0.0000E+00  0.6000E-01
    -24.312  0.0000E+00  0.6000E-01
    -24.183  0.0000E+00  0.6000E-01
    -24.055  0.0000E+00  0.6000E-01
    -23.926  0.0000E+00  0.6000E-01
    -23.798  0.0000E+00  0.6000E-01
    -23.669  0.0000E+00  0.6000E-01
    -23.541  0.0000E+00  0.6000E-01
    -23.412  0.0000E+00  0.6000E-01
    -23.284  0.0000E+00  0.6000E-01
    -23.155  0.0000E+00  0.6000E-01
    -23.027  0.0000E+00  0.6000E-01
    -22.898  0.0000E+00  0.6000E-01
    -22.770  0.0000E+00  0.6000E-01
    -22.641  0.0000E+00  0.6000E-01
    -22.513  0.0000E+00  0.6000E-01
    -22.384  0.0000E+00  0.6000E-01
    -22.256  0.0000E+00  0.6000E-01
    -22.127  0.0000E+00  0.6000E-01
    -21.999  0.0000E+00  0.6000E-01
    -21.870  0.0000E+00  0.6000E-01
    -21.742  0.0000E+00  0.6000E-01
    -21.613  0.0000E+00  0.6000E-01
    -21.485  0.0000E+00  0.6000E-01
    -21.356  0.0000E+00  0.6000E-01
    -21.228  0.0000E+00  0.6000E-01
    -21.099  0.0000E+00  0.6000E-01
    -20.971  0.0000E+00  0.6000E-01
    -20.842  0.0000E+00  0.6000E-01
    -20.714  0.0000E+00  0.6000E-01
    -20.585  0.0000E+00  0.6000E-01
    -20.457  0.0000E+00  0.6000E-01
    -20.329  0.0000E+00  0.6000E-01
    -20.200  0.0000E+00  0.6000E-01
    -20.072  0.0000E+00  0.6000E-01
    -19.943  0.0000E+00  0.6000E-01
    -19.815  0.0000E+00  0.6000E-01
    -19.686  0.7886E-08  0.6000E-01
    -19.558  0.1834E-01  0.6236E-01
    -19.429  0.7205E+00  0.1549E+00
    -19.301  0.3945E-01  0.1600E+00
    -19.172  0.5567E-07  0.1600E+00
    -19.044  0.0000E+00  0.1600E+00
    -18.915  0.0000E+00  0.1600E+00
    -18.787  0.0000E+00  0.1600E+00
    -18.658  0.0000E+00  0.1600E+00
    -18.530  0.0000E+00  0.1600E+00
    -18.401  0.0000E+00  0.1600E+00
    -18.273  0.0000E+00  0.1600E+00
    -18.144  0.0000E+00  0.1600E+00
    -18.016  0.0000E+00  0.1600E+00
    -17.887  0.0000E+00  0.1600E+00
    -17.759  0.0000E+00  0.1600E+00
    -17.630  0.0000E+00  0.1600E+00
    -17.502  0.0000E+00  0.1600E+00
    -17.373  0.0000E+00  0.1600E+00
    -17.245  0.0000E+00  0.1600E+00
    -17.116  0.0000E+00  0.1600E+00
    -16.988  0.0000E+00  0.1600E+00
    -16.859  0.0000E+00  0.1600E+00
    -16.731  0.0000E+00  0.1600E+00
    -16.602  0.0000E+00  0.1600E+00
    -16.474  0.0000E+00  0.1600E+00
    -16.345  0.0000E+00  0.1600E+00
    -16.217  0.0000E+00  0.1600E+00
    -16.088  0.0000E+00  0.1600E+00
    -15.960  0.0000E+00  0.1600E+00
    -15.831  0.0000E+00  0.1600E+00
    -15.703  0.0000E+00  0.1600E+00
    -15.574  0.0000E+00  0.1600E+00
    -15.446  0.0000E+00  0.1600E+00
    -15.318  0.0000E+00  0.1600E+00
    -15.189  0.0000E+00  0.1600E+00
    -15.061  0.0000E+00  0.1600E+00
    -14.932  0.0000E+00  0.1600E+00
    -14.804  0.0000E+00  0.1600E+00
    -14.675  0.0000E+00  0.1600E+00
    -14.547  0.0000E+00  0.1600E+00
    -14.418  0.0000E+00  0.1600E+00
    -14.290  0.0000E+00  0.1600E+00
    -14.161  0.0000E+00  0.1600E+00
    -14.033  0.0000E+00  0.1600E+00
    -13.904  0.0000E+00  0.1600E+00
    -13.776  0.0000E+00  0.1600E+00
    -13.647  0.0000E+00  0.1600E+00
    -13.519  0.0000E+00  0.1600E+00
    -13.390  0.0000E+00  0.1600E+00
    -13.262  0.8051E-09  0.1600E+00
    -13.133  0.3096E-02  0.1604E+00
    -13.005  0.5147E+00  0.2265E+00
    -12.876  0.4153E+00  0.2799E+00
    -12.748  0.8723E-03  0.2800E+00
    -12.619  0.3191E-10  0.2800E+00
    -12.491  0.0000E+00  0.2800E+00
    -12.362  0.0000E+00  0.2800E+00
    -12.234  0.0000E+00  0.2800E+00
    -12.105  0.0000E+00  0.2800E+00
    -11.977  0.0000E+00  0.2800E+00
    -11.848  0.0000E+00  0.2800E+00
    -11.720  0.0000E+00  0.2800E+00
    -11.591  0.0000E+00  0.2800E+00
    -11.463  0.0000E+00  0.2800E+00
    -11.334  0.0000E+00  0.2800E+00
    -11.206  0.5262E-12  0.2800E+00
    -11.077  0.1259E-03  0.2800E+00
    -10.949  0.2503E+00  0.3122E+00
    -10.820  0.2165E+00  0.3400E+00
    -10.692  0.5834E-04  0.3400E+00
    -10.563  0.9276E-13  0.3400E+00
    -10.435  0.0000E+00  0.3400E+00
    -10.307  0.0000E+00  0.3400E+00
    -10.178  0.0000E+00  0.3400E+00
    -10.050  0.0000E+00  0.3400E+00
     -9.921  0.0000E+00  0.3400E+00
     -9.793  0.0000E+00  0.3400E+00
     -9.664  0.0000E+00  0.3400E+00
     -9.536  0.0000E+00  0.3400E+00
     -9.407  0.0000E+00  0.3400E+00
     -9.279  0.0000E+00  0.3400E+00
     -9.150  0.0000E+00  0.3400E+00
     -9.022  0.0000E+00  0.3400E+00
     -8.893  0.0000E+00  0.3400E+00
     -8.765  0.0000E+00  0.3400E+00
     -8.636  0.0000E+00  0.3400E+00
     -8.508  0.0000E+00  0.3400E+00
     -8.379  0.0000E+00  0.3400E+00
     -8.251  0.0000E+00  0.3400E+00
     -8.122  0.0000E+00  0.3400E+00
     -7.994  0.0000E+00  0.3400E+00
     -7.865  0.0000E+00  0.3400E+00
     -7.737  0.2213E-13  0.3400E+00
     -7.608  0.3063E-05  0.3400E+00
     -7.480  0.1389E-01  0.3418E+00
     -7.351  0.1368E+00  0.3594E+00
     -7.223  0.4982E-02  0.3600E+00
     -7.094  0.5719E-08  0.3600E+00
     -6.966  0.0000E+00  0.3600E+00
     -6.837  0.0000E+00  0.3600E+00
     -6.709  0.0000E+00  0.3600E+00
     -6.580  0.0000E+00  0.3600E+00
     -6.452  0.0000E+00  0.3600E+00
     -6.323  0.0000E+00  0.3600E+00
     -6.195  0.0000E+00  0.3600E+00
     -6.066  0.0000E+00  0.3600E+00
     -5.938  0.0000E+00  0.3600E+00
     -5.809  0.0000E+00  0.3600E+00
     -5.681  0.0000E+00  0.3600E+00
     -5.552  0.0000E+00  0.3600E+00
     -5.424  0.0000E+00  0.3600E+00
     -5.296  0.0000E+00  0.3600E+00
     -5.167  0.0000E+00  0.3600E+00
     -5.039  0.0000E+00  0.3600E+00
     -4.910  0.0000E+00  0.3600E+00
     -4.782  0.0000E+00  0.3600E+00
     -4.653  0.0000E+00  0.3600E+00
     -4.525  0.0000E+00  0.3600E+00
     -4.396  0.0000E+00  0.3600E+00
     -4.268  0.0000E+00  0.3600E+00
     -4.139  0.0000E+00  0.3600E+00
     -4.011  0.0000E+00  0.3600E+00
     -3.882  0.0000E+00  0.3600E+00
     -3.754  0.0000E+00  0.3600E+00
     -3.625  0.0000E+00  0.3600E+00
     -3.497  0.0000E+00  0.3600E+00
     -3.368  0.0000E+00  0.3600E+00
     -3.240  0.0000E+00  0.3600E+00
     -3.111  0.0000E+00  0.3600E+00
     -2.983  0.0000E+00  0.3600E+00
     -2.854  0.0000E+00  0.3600E+00
     -2.726  0.0000E+00  0.3600E+00
     -2.597  0.0000E+00  0.3600E+00
     -2.469  0.0000E+00  0.3600E+00
     -2.340  0.0000E+00  0.3600E+00
     -2.212  0.0000E+00  0.3600E+00
     -2.083  0.0000E+00  0.3600E+00
     -1.955  0.0000E+00  0.3600E+00
     -1.826  0.0000E+00  0.3600E+00
     -1.698  0.0000E+00  0.3600E+00
     -1.569  0.0000E+00  0.3600E+00
     -1.441  0.0000E+00  0.3600E+00
     -1.312  0.0000E+00  0.3600E+00
     -1.184  0.0000E+00  0.3600E+00
     -1.055  0.0000E+00  0.3600E+00
     -0.927  0.0000E+00  0.3600E+00
     -0.798  0.0000E+00  0.3600E+00
     -0.670  0.0000E+00  0.3600E+00
     -0.541  0.0000E+00  0.3600E+00
     -0.413  0.0000E+00  0.3600E+00
     -0.285  0.0000E+00  0.3600E+00
     -0.156  0.3165E-14  0.3600E+00
     -0.028  0.6641E-06  0.3600E+00
      0.101  0.1079E-02  0.3601E+00
      0.229  0.1814E-01  0.3625E+00
      0.358  0.6698E-01  0.3711E+00
      0.486  0.4340E-01  0.3767E+00
      0.615  0.1953E-01  0.3792E+00
      0.743  0.9211E-02  0.3803E+00
      0.872  0.3224E-01  0.3845E+00
      1.000  0.2689E-01  0.3879E+00
      1.129  0.6537E-01  0.3963E+00
      1.257  0.1365E+00  0.4139E+00
      1.386  0.4619E-01  0.4198E+00
      1.514  0.1654E-02  0.4200E+00
      1.643  0.1372E-03  0.4200E+00
      1.771  0.2620E-07  0.4200E+00
      1.900  0.2248E-16  0.4200E+00
      2.028  0.6278E-08  0.4200E+00
      2.157  0.4334E-03  0.4201E+00
      2.285  0.3167E-02  0.4205E+00
      2.414  0.6562E-03  0.4206E+00
      2.542  0.8976E-06  0.4206E+00
      2.671  0.2015E-02  0.4208E+00
      2.799  0.3865E-02  0.4213E+00
      2.928  0.8584E-02  0.4224E+00
      3.056  0.1061E-01  0.4238E+00
      3.185  0.7657E-02  0.4248E+00
      3.313  0.4035E-01  0.4300E+00
      3.442  0.3251E-01  0.4342E+00
      3.570  0.2780E-01  0.4377E+00
      3.699  0.3786E-01  0.4426E+00
      3.827  0.1136E-01  0.4440E+00
      3.956  0.2224E-01  0.4469E+00
      4.084  0.3687E-01  0.4516E+00
      4.213  0.3630E-01  0.4563E+00
      4.341  0.5116E-01  0.4629E+00
      4.470  0.6598E-01  0.4714E+00
      4.598  0.3175E-01  0.4754E+00
      4.726  0.3971E-01  0.4805E+00
      4.855  0.5847E-01  0.4881E+00
      4.983  0.6944E-01  0.4970E+00
      5.112  0.9965E-02  0.4983E+00
      5.240  0.1205E-01  0.4998E+00
      5.369  0.6227E-03  0.4999E+00
      5.497  0.8497E-04  0.4999E+00
      5.626  0.8176E-03  0.5000E+00
      5.754  0.9459E-05  0.5000E+00
      5.883  0.1247E-11  0.5000E+00
      6.011  0.0000E+00  0.5000E+00
      6.140  0.0000E+00  0.5000E+00
      6.268  0.0000E+00  0.5000E+00
      6.397  0.0000E+00  0.5000E+00
      6.525  0.0000E+00  0.5000E+00
      6.654  0.0000E+00  0.5000E+00
      6.782  0.0000E+00  0.5000E+00
      6.911  0.0000E+00  0.5000E+00
      7.039  0.0000E+00  0.5000E+00
      7.168  0.0000E+00  0.5000E+00
      7.296  0.0000E+00  0.5000E+00
