    4    4  100    1
  0.4258216E+02  0.6222060E-09  0.6222060E-09  0.6222060E-09  0.5000000E-15
  1.000000000000000E-004
  CAR 
 unknown system                          
     42     29     25
 
  0.0000000E+00  0.0000000E+00  0.0000000E+00  0.1953125E-02
    1      -29.497826   1.000000
    2      -29.487448   1.000000
    3      -26.849646   1.000000
    4      -19.489732   1.000000
    5      -19.489730   1.000000
    6      -19.489730   1.000000
    7      -19.483867   1.000000
    8      -19.483867   1.000000
    9      -13.032115   1.000000
   10      -13.032115   1.000000
   11      -13.032115   1.000000
   12      -12.983176   1.000000
   13      -12.983176   1.000000
   14      -12.983176   1.000000
   15      -10.952789   1.000000
   16      -10.952789   1.000000
   17      -10.952786   1.000000
   18       -7.507493   1.000000
   19        1.372102   0.990095
   20        1.372110   0.990089
   21        1.372110   0.990089
   22        1.509989   0.058196
   23        3.988818   0.000000
   24        3.988818   0.000000
   25        4.541178   0.000000
 
  0.1250000E+00  0.0000000E+00  0.0000000E+00  0.1562500E-01
    1      -29.497388   1.000000
    2      -29.487822   1.000000
    3      -26.849726   1.000000
    4      -19.489699   1.000000
    5      -19.489698   1.000000
    6      -19.489643   1.000000
    7      -19.483866   1.000000
    8      -19.483866   1.000000
    9      -13.032980   1.000000
   10      -13.030753   1.000000
   11      -13.030753   1.000000
   12      -12.985384   1.000000
   13      -12.985384   1.000000
   14      -12.984149   1.000000
   15      -10.954873   1.000000
   16      -10.951932   1.000000
   17      -10.951929   1.000000
   18       -7.492882   1.000000
   19        0.830020   1.000000
   20        1.337332   0.999539
   21        1.337339   0.999539
   22        2.189413   0.000000
   23        4.107925   0.000000
   24        4.107926   0.000000
   25        4.451755   0.000000
 
  0.2500000E+00  0.0000000E+00  0.0000000E+00  0.1562500E-01
    1      -29.496178   1.000000
    2      -29.488884   1.000000
    3      -26.849919   1.000000
    4      -19.489635   1.000000
    5      -19.489633   1.000000
    6      -19.489460   1.000000
    7      -19.483871   1.000000
    8      -19.483871   1.000000
    9      -13.032707   1.000000
   10      -13.026672   1.000000
   11      -13.026672   1.000000
   12      -12.991479   1.000000
   13      -12.991479   1.000000
   14      -12.989123   1.000000
   15      -10.959148   1.000000
   16      -10.949858   1.000000
   17      -10.949855   1.000000
   18       -7.458722   1.000000
   19        0.409860   1.000000
   20        1.261858   1.000000
   21        1.261865   1.000000
   22        2.885518   0.000000
   23        4.396937   0.000000
   24        4.396939   0.000000
   25        4.490717   0.000000
 
  0.3750000E+00  0.0000000E+00  0.0000000E+00  0.1562500E-01
    1      -29.494418   1.000000
    2      -29.490489   1.000000
    3      -26.850113   1.000000
    4      -19.489573   1.000000
    5      -19.489571   1.000000
    6      -19.489263   1.000000
    7      -19.483871   1.000000
    8      -19.483871   1.000000
    9      -13.027772   1.000000
   10      -13.020188   1.000000
   11      -13.020188   1.000000
   12      -12.999983   1.000000
   13      -12.999983   1.000000
   14      -12.999048   1.000000
   15      -10.962426   1.000000
   16      -10.947790   1.000000
   17      -10.947787   1.000000
   18       -7.426029   1.000000
   19        0.167322   1.000000
   20        1.195818   1.000000
   21        1.195824   1.000000
   22        3.272686   0.000000
   23        4.685133   0.000000
   24        4.685139   0.000000
   25        4.945454   0.000000
 
  0.5000000E+00  0.0000000E+00  0.0000000E+00  0.7812500E-02
    1      -29.492454   1.000000
    2      -29.492386   1.000000
    3      -26.850193   1.000000
    4      -19.489555   1.000000
    5      -19.489554   1.000000
    6      -19.489168   1.000000
    7      -19.483869   1.000000
    8      -19.483869   1.000000
    9      -13.021961   1.000000
   10      -13.014411   1.000000
   11      -13.014410   1.000000
   12      -13.006993   1.000000
   13      -13.006620   1.000000
   14      -13.006620   1.000000
   15      -10.963514   1.000000
   16      -10.946939   1.000000
   17      -10.946936   1.000000
   18       -7.412892   1.000000
   19        0.087926   1.000000
   20        1.170684   1.000000
   21        1.170690   1.000000
   22        3.412199   0.000000
   23        4.679871   0.000000
   24        4.804291   0.000000
   25        4.804298   0.000000
 
  0.1250000E+00  0.1250000E+00  0.0000000E+00  0.1171875E-01
    1      -29.497263   1.000000
    2      -29.487929   1.000000
    3      -26.849751   1.000000
    4      -19.489671   1.000000
    5      -19.489670   1.000000
    6      -19.489646   1.000000
    7      -19.483885   1.000000
    8      -19.483849   1.000000
    9      -13.036198   1.000000
   10      -13.036198   1.000000
   11      -13.021932   1.000000
   12      -12.994431   1.000000
   13      -12.980863   1.000000
   14      -12.980863   1.000000
   15      -10.956461   1.000000
   16      -10.951179   1.000000
   17      -10.951177   1.000000
   18       -7.488603   1.000000
   19        0.743900   1.000000
   20        1.351011   0.998286
   21        1.351015   0.998285
   22        2.272117   0.000000
   23        4.094592   0.000000
   24        4.191168   0.000000
   25        4.252636   0.000000
 
  0.2500000E+00  0.1250000E+00  0.0000000E+00  0.4687500E-01
    1      -29.496364   1.000000
    2      -29.488704   1.000000
    3      -26.849908   1.000000
    4      -19.489634   1.000000
    5      -19.489618   1.000000
    6      -19.489511   1.000000
    7      -19.483896   1.000000
    8      -19.483846   1.000000
    9      -13.039047   1.000000
   10      -13.038072   1.000000
   11      -13.012051   1.000000
   12      -13.006112   1.000000
   13      -12.981071   1.000000
   14      -12.980992   1.000000
   15      -10.959876   1.000000
   16      -10.949816   1.000000
   17      -10.949191   1.000000
   18       -7.462493   1.000000
   19        0.455714   1.000000
   20        1.265149   1.000000
   21        1.304999   0.999988
   22        2.820824   0.000000
   23        4.089754   0.000000
   24        4.298523   0.000000
   25        4.391503   0.000000
 
  0.3750000E+00  0.1250000E+00  0.0000000E+00  0.4687500E-01
    1      -29.494876   1.000000
    2      -29.490043   1.000000
    3      -26.850102   1.000000
    4      -19.489562   1.000000
    5      -19.489557   1.000000
    6      -19.489322   1.000000
    7      -19.483888   1.000000
    8      -19.483849   1.000000
    9      -13.037936   1.000000
   10      -13.035569   1.000000
   11      -13.018848   1.000000
   12      -13.001299   1.000000
   13      -12.986956   1.000000
   14      -12.985585   1.000000
   15      -10.961912   1.000000
   16      -10.948946   1.000000
   17      -10.947136   1.000000
   18       -7.431277   1.000000
   19        0.255762   1.000000
   20        1.136300   1.000000
   21        1.235513   1.000000
   22        3.293407   0.000000
   23        4.320719   0.000000
   24        4.433964   0.000000
   25        4.600216   0.000000
 
  0.5000000E+00  0.1250000E+00  0.0000000E+00  0.4687500E-01
    1      -29.493062   1.000000
    2      -29.491761   1.000000
    3      -26.850219   1.000000
    4      -19.489529   1.000000
    5      -19.489514   1.000000
    6      -19.489199   1.000000
    7      -19.483871   1.000000
    8      -19.483852   1.000000
    9      -13.036746   1.000000
   10      -13.028614   1.000000
   11      -13.024303   1.000000
   12      -12.998133   1.000000
   13      -12.993310   1.000000
   14      -12.990665   1.000000
   15      -10.962070   1.000000
   16      -10.948677   1.000000
   17      -10.946214   1.000000
   18       -7.412796   1.000000
   19        0.170475   1.000000
   20        1.060099   1.000000
   21        1.183848   1.000000
   22        3.561421   0.000000
   23        4.181470   0.000000
   24        4.804130   0.000000
   25        4.828222   0.000000
 
 -0.3750000E+00  0.1250000E+00  0.0000000E+00  0.4687500E-01
    1      -29.493631   1.000000
    2      -29.491212   1.000000
    3      -26.850192   1.000000
    4      -19.489548   1.000000
    5      -19.489500   1.000000
    6      -19.489230   1.000000
    7      -19.483868   1.000000
    8      -19.483859   1.000000
    9      -13.042039   1.000000
   10      -13.018230   1.000000
   11      -13.016847   1.000000
   12      -13.008472   1.000000
   13      -13.002757   1.000000
   14      -12.982220   1.000000
   15      -10.961451   1.000000
   16      -10.948787   1.000000
   17      -10.946960   1.000000
   18       -7.416567   1.000000
   19        0.189724   1.000000
   20        1.076804   1.000000
   21        1.172890   1.000000
   22        3.544905   0.000000
   23        4.205392   0.000000
   24        4.784562   0.000000
   25        4.978357   0.000000
 
 -0.2500000E+00  0.1250000E+00  0.0000000E+00  0.4687500E-01
    1      -29.495377   1.000000
    2      -29.489588   1.000000
    3      -26.850037   1.000000
    4      -19.489608   1.000000
    5      -19.489552   1.000000
    6      -19.489384   1.000000
    7      -19.483887   1.000000
    8      -19.483853   1.000000
    9      -13.043553   1.000000
   10      -13.022241   1.000000
   11      -13.013619   1.000000
   12      -13.005292   1.000000
   13      -13.000975   1.000000
   14      -12.977678   1.000000
   15      -10.960156   1.000000
   16      -10.949261   1.000000
   17      -10.948942   1.000000
   18       -7.440717   1.000000
   19        0.314911   1.000000
   20        1.179110   1.000000
   21        1.207509   1.000000
   22        3.228003   0.000000
   23        4.337272   0.000000
   24        4.420995   0.000000
   25        4.634087   0.000000
 
 -0.1250000E+00  0.1250000E+00  0.0000000E+00  0.2343750E-01
    1      -29.496714   1.000000
    2      -29.488405   1.000000
    3      -26.849843   1.000000
    4      -19.489673   1.000000
    5      -19.489630   1.000000
    6      -19.489552   1.000000
    7      -19.483883   1.000000
    8      -19.483855   1.000000
    9      -13.039519   1.000000
   10      -13.028339   1.000000
   11      -13.022807   1.000000
   12      -12.994098   1.000000
   13      -12.991084   1.000000
   14      -12.978768   1.000000
   15      -10.957528   1.000000
   16      -10.951000   1.000000
   17      -10.950391   1.000000
   18       -7.472459   1.000000
   19        0.555466   1.000000
   20        1.274330   1.000000
   21        1.300484   0.999993
   22        2.666039   0.000000
   23        4.215919   0.000000
   24        4.304070   0.000000
   25        4.335042   0.000000
 
  0.2500000E+00  0.2500000E+00  0.0000000E+00  0.1171875E-01
    1      -29.495914   1.000000
    2      -29.489077   1.000000
    3      -26.850010   1.000000
    4      -19.489553   1.000000
    5      -19.489551   1.000000
    6      -19.489473   1.000000
    7      -19.483910   1.000000
    8      -19.483817   1.000000
    9      -13.045771   1.000000
   10      -13.045771   1.000000
   11      -13.021580   1.000000
   12      -12.997184   1.000000
   13      -12.975512   1.000000
   14      -12.975512   1.000000
   15      -10.963942   1.000000
   16      -10.947341   1.000000
   17      -10.947339   1.000000
   18       -7.449428   1.000000
   19        0.362143   1.000000
   20        1.305546   0.999987
   21        1.305551   0.999987
   22        2.954867   0.000000
   23        3.706411   0.000000
   24        4.410036   0.000000
   25        4.425375   0.000000
 
  0.3750000E+00  0.2500000E+00  0.0000000E+00  0.4687500E-01
    1      -29.494916   1.000000
    2      -29.489946   1.000000
    3      -26.850169   1.000000
    4      -19.489497   1.000000
    5      -19.489488   1.000000
    6      -19.489350   1.000000
    7      -19.483899   1.000000
    8      -19.483808   1.000000
    9      -13.049203   1.000000
   10      -13.048079   1.000000
   11      -13.034728   1.000000
   12      -12.984648   1.000000
   13      -12.976143   1.000000
   14      -12.975255   1.000000
   15      -10.965698   1.000000
   16      -10.946461   1.000000
   17      -10.945382   1.000000
   18       -7.428421   1.000000
   19        0.300564   1.000000
   20        1.175407   1.000000
   21        1.265547   1.000000
   22        3.223766   0.000000
   23        3.644568   0.000000
   24        4.417476   0.000000
   25        4.676272   0.000000
 
  0.5000000E+00  0.2500000E+00  0.0000000E+00  0.4687500E-01
    1      -29.493570   1.000000
    2      -29.491199   1.000000
    3      -26.850287   1.000000
    4      -19.489461   1.000000
    5      -19.489412   1.000000
    6      -19.489246   1.000000
    7      -19.483884   1.000000
    8      -19.483816   1.000000
    9      -13.053694   1.000000
   10      -13.044146   1.000000
   11      -13.036524   1.000000
   12      -12.984429   1.000000
   13      -12.979929   1.000000
   14      -12.974819   1.000000
   15      -10.963170   1.000000
   16      -10.948488   1.000000
   17      -10.944470   1.000000
   18       -7.412067   1.000000
   19        0.335386   1.000000
   20        0.933850   1.000000
   21        1.213921   1.000000
   22        3.393985   0.000000
   23        3.949333   0.000000
   24        4.465584   0.000000
   25        4.907338   0.000000
 
 -0.3750000E+00  0.2500000E+00  0.0000000E+00  0.4687500E-01
    1      -29.492660   1.000000
    2      -29.492101   1.000000
    3      -26.850297   1.000000
    4      -19.489484   1.000000
    5      -19.489380   1.000000
    6      -19.489236   1.000000
    7      -19.483865   1.000000
    8      -19.483841   1.000000
    9      -13.057171   1.000000
   10      -13.034428   1.000000
   11      -13.027148   1.000000
   12      -12.997532   1.000000
   13      -12.988674   1.000000
   14      -12.969494   1.000000
   15      -10.958278   1.000000
   16      -10.952422   1.000000
   17      -10.945133   1.000000
   18       -7.408810   1.000000
   19        0.379467   1.000000
   20        0.806345   1.000000
   21        1.178422   1.000000
   22        3.631255   0.000000
   23        4.021189   0.000000
   24        4.851841   0.000000
   25        4.901184   0.000000
 
 -0.2500000E+00  0.2500000E+00  0.0000000E+00  0.2343750E-01
    1      -29.494132   1.000000
    2      -29.490714   1.000000
    3      -26.850195   1.000000
    4      -19.489546   1.000000
    5      -19.489432   1.000000
    6      -19.489316   1.000000
    7      -19.483876   1.000000
    8      -19.483847   1.000000
    9      -13.053674   1.000000
   10      -13.020699   1.000000
   11      -13.014079   1.000000
   12      -13.011305   1.000000
   13      -13.000271   1.000000
   14      -12.970142   1.000000
   15      -10.958416   1.000000
   16      -10.951611   1.000000
   17      -10.946983   1.000000
   18       -7.420220   1.000000
   19        0.320820   1.000000
   20        0.955288   1.000000
   21        1.175106   1.000000
   22        3.694032   0.000000
   23        4.087574   0.000000
   24        4.513218   0.000000
   25        4.761172   0.000000
 
  0.3750000E+00  0.3750000E+00  0.0000000E+00  0.1171875E-01
    1      -29.494556   1.000000
    2      -29.490224   1.000000
    3      -26.850272   1.000000
    4      -19.489434   1.000000
    5      -19.489433   1.000000
    6      -19.489299   1.000000
    7      -19.483910   1.000000
    8      -19.483794   1.000000
    9      -13.055099   1.000000
   10      -13.055099   1.000000
   11      -13.048628   1.000000
   12      -12.972234   1.000000
   13      -12.970356   1.000000
   14      -12.970356   1.000000
   15      -10.969544   1.000000
   16      -10.943565   1.000000
   17      -10.943563   1.000000
   18       -7.419674   1.000000
   19        0.300121   1.000000
   20        1.266549   1.000000
   21        1.266553   1.000000
   22        3.025124   0.000000
   23        3.275814   0.000000
   24        4.610890   0.000000
   25        4.927790   0.000000
 
  0.5000000E+00  0.3750000E+00  0.0000000E+00  0.4687500E-01
    1      -29.493892   1.000000
    2      -29.490828   1.000000
    3      -26.850353   1.000000
    4      -19.489400   1.000000
    5      -19.489367   1.000000
    6      -19.489247   1.000000
    7      -19.483890   1.000000
    8      -19.483785   1.000000
    9      -13.061749   1.000000
   10      -13.055007   1.000000
   11      -13.049365   1.000000
   12      -12.972820   1.000000
   13      -12.971244   1.000000
   14      -12.965065   1.000000
   15      -10.968688   1.000000
   16      -10.944124   1.000000
   17      -10.942731   1.000000
   18       -7.410817   1.000000
   19        0.368009   1.000000
   20        1.087455   1.000000
   21        1.241410   1.000000
   22        3.012358   0.000000
   23        3.370978   0.000000
   24        4.800605   0.000000
   25        5.189484   0.000000
 
 -0.3750000E+00  0.3750000E+00  0.0000000E+00  0.2343750E-01
    1      -29.493033   1.000000
    2      -29.491677   1.000000
    3      -26.850364   1.000000
    4      -19.489416   1.000000
    5      -19.489303   1.000000
    6      -19.489275   1.000000
    7      -19.483882   1.000000
    8      -19.483806   1.000000
    9      -13.064332   1.000000
   10      -13.047642   1.000000
   11      -13.039752   1.000000
   12      -12.983216   1.000000
   13      -12.977638   1.000000
   14      -12.963844   1.000000
   15      -10.963235   1.000000
   16      -10.948455   1.000000
   17      -10.943380   1.000000
   18       -7.406571   1.000000
   19        0.523878   1.000000
   20        0.736106   1.000000
   21        1.206224   1.000000
   22        3.212721   0.000000
   23        3.837970   0.000000
   24        4.846918   0.000000
   25        5.116930   0.000000
 
  0.5000000E+00  0.5000000E+00  0.0000000E+00  0.5859375E-02
    1      -29.493994   1.000000
    2      -29.490700   1.000000
    3      -26.850380   1.000000
    4      -19.489367   1.000000
    5      -19.489366   1.000000
    6      -19.489222   1.000000
    7      -19.483911   1.000000
    8      -19.483761   1.000000
    9      -13.059798   1.000000
   10      -13.058907   1.000000
   11      -13.058907   1.000000
   12      -12.968236   1.000000
   13      -12.968236   1.000000
   14      -12.961834   1.000000
   15      -10.971335   1.000000
   16      -10.942011   1.000000
   17      -10.942009   1.000000
   18       -7.410179   1.000000
   19        0.347129   1.000000
   20        1.252006   1.000000
   21        1.252010   1.000000
   22        2.821275   0.000000
   23        3.118484   0.000000
   24        4.940522   0.000000
   25        5.544138   0.000000
 
  0.3750000E+00  0.2500000E+00  0.1250000E+00  0.4687500E-01
    1      -29.495391   1.000000
    2      -29.489555   1.000000
    3      -26.850064   1.000000
    4      -19.489573   1.000000
    5      -19.489521   1.000000
    6      -19.489402   1.000000
    7      -19.483899   1.000000
    8      -19.483832   1.000000
    9      -13.048066   1.000000
   10      -13.034565   1.000000
   11      -13.020270   1.000000
   12      -12.999315   1.000000
   13      -12.988004   1.000000
   14      -12.973900   1.000000
   15      -10.961997   1.000000
   16      -10.948552   1.000000
   17      -10.947669   1.000000
   18       -7.439446   1.000000
   19        0.332194   1.000000
   20        1.188097   1.000000
   21        1.223593   1.000000
   22        3.242688   0.000000
   23        3.961183   0.000000
   24        4.343130   0.000000
   25        4.596313   0.000000
 
  0.5000000E+00  0.2500000E+00  0.1250000E+00  0.9375000E-01
    1      -29.493982   1.000000
    2      -29.490842   1.000000
    3      -26.850220   1.000000
    4      -19.489513   1.000000
    5      -19.489446   1.000000
    6      -19.489279   1.000000
    7      -19.483881   1.000000
    8      -19.483836   1.000000
    9      -13.052874   1.000000
   10      -13.032665   1.000000
   11      -13.025661   1.000000
   12      -12.999202   1.000000
   13      -12.987691   1.000000
   14      -12.973036   1.000000
   15      -10.961085   1.000000
   16      -10.949970   1.000000
   17      -10.945760   1.000000
   18       -7.417698   1.000000
   19        0.300319   1.000000
   20        0.998058   1.000000
   21        1.174608   1.000000
   22        3.578709   0.000000
   23        4.092118   0.000000
   24        4.318735   0.000000
   25        4.860624   0.000000
 
 -0.3750000E+00  0.2500000E+00  0.1250000E+00  0.4687500E-01
    1      -29.492402   1.000000
    2      -29.492368   1.000000
    3      -26.850284   1.000000
    4      -19.489482   1.000000
    5      -19.489422   1.000000
    6      -19.489209   1.000000
    7      -19.483862   1.000000
    8      -19.483839   1.000000
    9      -13.053811   1.000000
   10      -13.037783   1.000000
   11      -13.015571   1.000000
   12      -13.010360   1.000000
   13      -12.979244   1.000000
   14      -12.977281   1.000000
   15      -10.959484   1.000000
   16      -10.951603   1.000000
   17      -10.944944   1.000000
   18       -7.409039   1.000000
   19        0.310184   1.000000
   20        0.901702   1.000000
   21        1.157226   1.000000
   22        3.740709   0.000000
   23        3.907622   0.000000
   24        4.760381   0.000000
   25        4.834414   0.000000
 
  0.5000000E+00  0.3750000E+00  0.1250000E+00  0.4687500E-01
    1      -29.494062   1.000000
    2      -29.490706   1.000000
    3      -26.850289   1.000000
    4      -19.489448   1.000000
    5      -19.489404   1.000000
    6      -19.489287   1.000000
    7      -19.483898   1.000000
    8      -19.483805   1.000000
    9      -13.060082   1.000000
   10      -13.043960   1.000000
   11      -13.042596   1.000000
   12      -12.983626   1.000000
   13      -12.973633   1.000000
   14      -12.969140   1.000000
   15      -10.965675   1.000000
   16      -10.946799   1.000000
   17      -10.943761   1.000000
   18       -7.415101   1.000000
   19        0.347054   1.000000
   20        1.084720   1.000000
   21        1.163499   1.000000
   22        3.288930   0.000000
   23        3.623146   0.000000
   24        4.503266   0.000000
   25        4.943004   0.000000
 
 -0.3750000E+00  0.3750000E+00  0.1250000E+00  0.9375000E-01
    1      -29.492993   1.000000
    2      -29.491725   1.000000
    3      -26.850352   1.000000
    4      -19.489412   1.000000
    5      -19.489335   1.000000
    6      -19.489258   1.000000
    7      -19.483877   1.000000
    8      -19.483815   1.000000
    9      -13.066189   1.000000
   10      -13.045841   1.000000
   11      -13.030430   1.000000
   12      -12.996703   1.000000
   13      -12.970019   1.000000
   14      -12.966908   1.000000
   15      -10.961267   1.000000
   16      -10.950847   1.000000
   17      -10.943063   1.000000
   18       -7.407028   1.000000
   19        0.491344   1.000000
   20        0.812552   1.000000
   21        1.115962   1.000000
   22        3.346016   0.000000
   23        3.965584   0.000000
   24        4.618929   0.000000
   25        4.952142   0.000000
 
 -0.2500000E+00  0.3750000E+00  0.1250000E+00  0.4687500E-01
    1      -29.492870   1.000000
    2      -29.491874   1.000000
    3      -26.850324   1.000000
    4      -19.489450   1.000000
    5      -19.489328   1.000000
    6      -19.489268   1.000000
    7      -19.483861   1.000000
    8      -19.483832   1.000000
    9      -13.063734   1.000000
   10      -13.041515   1.000000
   11      -13.014771   1.000000
   12      -13.012135   1.000000
   13      -12.976667   1.000000
   14      -12.966464   1.000000
   15      -10.956644   1.000000
   16      -10.954844   1.000000
   17      -10.943961   1.000000
   18       -7.408038   1.000000
   19        0.480028   1.000000
   20        0.764309   1.000000
   21        1.124173   1.000000
   22        3.521527   0.000000
   23        4.219419   0.000000
   24        4.413388   0.000000
   25        4.923436   0.000000
 
 -0.3750000E+00  0.5000000E+00  0.1250000E+00  0.2343750E-01
    1      -29.493513   1.000000
    2      -29.491182   1.000000
    3      -26.850381   1.000000
    4      -19.489376   1.000000
    5      -19.489346   1.000000
    6      -19.489247   1.000000
    7      -19.483894   1.000000
    8      -19.483780   1.000000
    9      -13.068115   1.000000
   10      -13.050645   1.000000
   11      -13.045900   1.000000
   12      -12.981802   1.000000
   13      -12.967345   1.000000
   14      -12.962746   1.000000
   15      -10.966823   1.000000
   16      -10.946095   1.000000
   17      -10.942119   1.000000
   18       -7.407621   1.000000
   19        0.437632   1.000000
   20        1.043566   1.000000
   21        1.106244   1.000000
   22        3.079054   0.000000
   23        3.498839   0.000000
   24        4.912666   0.000000
   25        5.168508   0.000000
 
 -0.2500000E+00  0.5000000E+00  0.2500000E+00  0.1171875E-01
    1      -29.492350   1.000000
    2      -29.492349   1.000000
    3      -26.850381   1.000000
    4      -19.489380   1.000000
    5      -19.489299   1.000000
    6      -19.489298   1.000000
    7      -19.483869   1.000000
    8      -19.483823   1.000000
    9      -13.071770   1.000000
   10      -13.047082   1.000000
   11      -13.014135   1.000000
   12      -13.014134   1.000000
   13      -12.965637   1.000000
   14      -12.964475   1.000000
   15      -10.956242   1.000000
   16      -10.956240   1.000000
   17      -10.942227   1.000000
   18       -7.405071   1.000000
   19        0.692997   1.000000
   20        0.693004   1.000000
   21        0.987486   1.000000
   22        3.327082   0.000000
   23        4.331087   0.000000
   24        4.331090   0.000000
   25        4.865766   0.000000
