 vasp.5.4.4.18Apr17-6-g9f103f2a35 (build Jun 23 2019 17:35:09) complex          
  
 executed on             LinuxIFC date 2020.01.14  23:16:47
 running on   28 total cores
 distrk:  each k-point on    7 cores,    4 groups
 distr:  one band on NCORES_PER_BAND=   7 cores,    1 groups


--------------------------------------------------------------------------------------------------------


 INCAR:
 POTCAR:    PAW_PBE Bi_d 06Sep2000                
 POTCAR:    PAW_PBE K_sv 06Sep2000                
 POTCAR:    PAW_PBE Rb_sv 06Sep2000               

 ----------------------------------------------------------------------------- 
|                                                                             |
|           W    W    AA    RRRRR   N    N  II  N    N   GGGG   !!!           |
|           W    W   A  A   R    R  NN   N  II  NN   N  G    G  !!!           |
|           W    W  A    A  R    R  N N  N  II  N N  N  G       !!!           |
|           W WW W  AAAAAA  RRRRR   N  N N  II  N  N N  G  GGG   !            |
|           WW  WW  A    A  R   R   N   NN  II  N   NN  G    G                |
|           W    W  A    A  R    R  N    N  II  N    N   GGGG   !!!           |
|                                                                             |
|      You have enabled k-point parallelism (KPAR>1).                         |
|      This developmental code was originally  written by Paul Kent at ORNL,  |
|      and carefully double checked in Vienna.                                |
|      GW as well as linear response parallelism added by Martijn Marsman     |
|      and Georg Kresse.                                                      |
|      Carefully verify results versus KPAR=1.                                |
|      Report problems to Paul Kent and Vienna.                               |
|                                                                             |
 ----------------------------------------------------------------------------- 

 POTCAR:    PAW_PBE Bi_d 06Sep2000                
   VRHFIN =Bi:                                                                  
   LEXCH  = PE                                                                  
   EATOM  =  1959.2045 eV,  143.9975 Ry                                         
                                                                                
   TITEL  = PAW_PBE Bi_d 06Sep2000                                              
   LULTRA =        F    use ultrasoft PP ?                                      
   IUNSCR =        1    unscreen: 0-lin 1-nonlin 2-no                           
   RPACOR =    2.200    partial core radius                                     
   POMASS =  208.980; ZVAL   =   15.000    mass and valenz                      
   RCORE  =    2.500    outmost cutoff radius                                   
   RWIGS  =    3.090; RWIGS  =    1.635    wigner-seitz radius (au A)           
   ENMAX  =  242.839; ENMIN  =  182.129 eV                                      
   ICORE  =        3    local potential                                         
   LCOR   =        T    correct aug charges                                     
   LPAW   =        T    paw PP                                                  
   EAUG   =  442.899                                                            
   DEXC   =    0.000                                                            
   RMAX   =    2.551    core radius for proj-oper                               
   RAUG   =    1.300    factor for augmentation sphere                          
   RDEP   =    2.650    radius for radial grids                                 
   RDEPT  =    2.039    core radius for aug-charge                              
                                                                                
   Atomic configuration                                                         
   16 entries                                                                   
     n  l   j            E        occ.                                          
     1  0  0.50    -90639.6581   2.0000                                         
     2  0  0.50    -16282.4666   2.0000                                         
     2  1  1.50    -13922.8286   6.0000                                         
     3  0  0.50     -3930.4763   2.0000                                         
     3  1  1.50     -3256.7013   6.0000                                         
     3  2  2.50     -2581.6168  10.0000                                         
     4  0  0.50      -902.2614   2.0000                                         
     4  1  1.50      -681.5915   6.0000                                         
     4  2  2.50      -429.8249  10.0000                                         
     4  3  3.50      -152.6004  14.0000                                         
     5  0  0.50      -157.7156   2.0000                                         
     5  1  1.50       -95.8054   6.0000                                         
     5  2  2.50       -27.0806  10.0000                                         
     6  0  0.50       -14.4732   2.0000                                         
     6  1  1.50        -4.5702   3.0000                                         
     5  3  2.50        -2.7212   0.0000                                         
   Description                                                                  
     l       E           TYP  RCUT    TYP  RCUT                                 
     2    -27.0805982     23  2.500                                             
     2     -1.3605826     23  2.500                                             
     0    -14.4732271     23  2.500                                             
     0      6.8029130     23  2.500                                             
     1     -4.5701651     23  2.500                                             
     1     13.6058260     23  2.500                                             
     3     -1.3605826      7  2.500                                             
  local pseudopotential read in
  partial core-charges read in
  partial kinetic energy density read in
  atomic valenz-charges read in
  non local Contribution for L=           2  read in
    real space projection operators read in
  non local Contribution for L=           2  read in
    real space projection operators read in
  non local Contribution for L=           0  read in
    real space projection operators read in
  non local Contribution for L=           0  read in
    real space projection operators read in
  non local Contribution for L=           1  read in
    real space projection operators read in
  non local Contribution for L=           1  read in
    real space projection operators read in
    PAW grid and wavefunctions read in
 
   number of l-projection  operators is LMAX  =           6
   number of lm-projection operators is LMMAX =          18
 
 POTCAR:    PAW_PBE K_sv 06Sep2000                
   VRHFIN =K:  3s3p4s                                                           
   LEXCH  = PE                                                                  
   EATOM  =   775.0067 eV,   56.9614 Ry                                         
                                                                                
   TITEL  = PAW_PBE K_sv 06Sep2000                                              
   LULTRA =        F    use ultrasoft PP ?                                      
   IUNSCR =        1    unscreen: 0-lin 1-nonlin 2-no                           
   RPACOR =    2.200    partial core radius                                     
   POMASS =   39.098; ZVAL   =    9.000    mass and valenz                      
   RCORE  =    2.300    outmost cutoff radius                                   
   RWIGS  =    3.000; RWIGS  =    1.588    wigner-seitz radius (au A)           
   ENMAX  =  259.264; ENMIN  =  194.448 eV                                      
   RCLOC  =    2.005    cutoff for local pot                                    
   LCOR   =        T    correct aug charges                                     
   LPAW   =        T    paw PP                                                  
   EAUG   =  427.853                                                            
   DEXC   =    0.000                                                            
   RMAX   =    2.358    core radius for proj-oper                               
   RAUG   =    1.300    factor for augmentation sphere                          
   RDEP   =    2.372    radius for radial grids                                 
   RDEPT  =    2.002    core radius for aug-charge                              
                                                                                
   Atomic configuration                                                         
    7 entries                                                                   
     n  l   j            E        occ.                                          
     1  0  0.50     -3522.0595   2.0000                                         
     2  0  0.50      -353.3851   2.0000                                         
     2  1  1.50      -280.0935   6.0000                                         
     3  0  0.50       -35.3419   2.0000                                         
     4  0  0.50        -2.3190   1.0000                                         
     3  1  1.50       -18.8125   6.0000                                         
     3  2  1.50        -1.3606   0.0000                                         
   Description                                                                  
     l       E           TYP  RCUT    TYP  RCUT                                 
     0    -35.3418873     23  2.300                                             
     0     -2.3190215     23  2.300                                             
     1    -18.8124623     23  2.300                                             
     1    -20.4087390     23  2.300                                             
     2     -1.3605826     23  2.300                                             
  local pseudopotential read in
  partial core-charges read in
  partial kinetic energy density read in
  atomic valenz-charges read in
  non local Contribution for L=           0  read in
    real space projection operators read in
  non local Contribution for L=           0  read in
    real space projection operators read in
  non local Contribution for L=           1  read in
    real space projection operators read in
  non local Contribution for L=           1  read in
    real space projection operators read in
  non local Contribution for L=           2  read in
    real space projection operators read in
    PAW grid and wavefunctions read in
 
   number of l-projection  operators is LMAX  =           5
   number of lm-projection operators is LMMAX =          13
 
 POTCAR:    PAW_PBE Rb_sv 06Sep2000               
   VRHFIN =Rb: 4s4p5s                                                           
   LEXCH  = PE                                                                  
   EATOM  =   662.5034 eV,   48.6926 Ry                                         
                                                                                
   TITEL  = PAW_PBE Rb_sv 06Sep2000                                             
   LULTRA =        F    use ultrasoft PP ?                                      
   IUNSCR =        1    unscreen: 0-lin 1-nonlin 2-no                           
   RPACOR =    2.200    partial core radius                                     
   POMASS =   85.468; ZVAL   =    9.000    mass and valenz                      
   RCORE  =    2.500    outmost cutoff radius                                   
   RWIGS  =    4.570; RWIGS  =    2.418    wigner-seitz radius (au A)           
   ENMAX  =  220.112; ENMIN  =  165.084 eV                                      
   RCLOC  =    2.200    cutoff for local pot                                    
   LCOR   =        T    correct aug charges                                     
   LPAW   =        T    paw PP                                                  
   EAUG   =  423.861                                                            
   DEXC   =    0.000                                                            
   RMAX   =    2.546    core radius for proj-oper                               
   RAUG   =    1.300    factor for augmentation sphere                          
   RDEP   =    2.541    radius for radial grids                                 
   RDEPT  =    2.044    core radius for aug-charge                              
                                                                                
   Atomic configuration                                                         
   10 entries                                                                   
     n  l   j            E        occ.                                          
     1  0  0.50    -15031.5419   2.0000                                         
     2  0  0.50     -2007.8842   2.0000                                         
     2  1  1.50     -1779.8144   6.0000                                         
     3  0  0.50      -297.9619   2.0000                                         
     3  1  1.50      -224.8335   6.0000                                         
     3  2  2.50      -103.9539  10.0000                                         
     4  0  0.50       -31.8932   2.0000                                         
     5  0  0.50        -2.2327   0.9990                                         
     4  1  1.50       -15.9645   6.0000                                         
     4  2  1.50        -0.0020   0.0010                                         
   Description                                                                  
     l       E           TYP  RCUT    TYP  RCUT                                 
     0    -31.8932387     23  2.500                                             
     0     -2.2326525     23  2.500                                             
     1    -15.9644597     23  2.500                                             
     1    -17.3250423     23  2.500                                             
     2     -0.0020100     23  2.500                                             
  local pseudopotential read in
  partial core-charges read in
  partial kinetic energy density read in
  atomic valenz-charges read in
  non local Contribution for L=           0  read in
    real space projection operators read in
  non local Contribution for L=           0  read in
    real space projection operators read in
  non local Contribution for L=           1  read in
    real space projection operators read in
  non local Contribution for L=           1  read in
    real space projection operators read in
  non local Contribution for L=           2  read in
    real space projection operators read in
    PAW grid and wavefunctions read in
 
   number of l-projection  operators is LMAX  =           5
   number of lm-projection operators is LMMAX =          13
 
  PAW_PBE Bi_d 06Sep2000                :
 energy of atom  1       EATOM=-1959.2045
 kinetic energy error for atom=    0.0040 (will be added to EATOM!!)
  PAW_PBE K_sv 06Sep2000                :
 energy of atom  2       EATOM= -775.0067
 kinetic energy error for atom=    0.0014 (will be added to EATOM!!)
  PAW_PBE Rb_sv 06Sep2000               :
 energy of atom  3       EATOM= -662.5034
 kinetic energy error for atom=    0.0006 (will be added to EATOM!!)
 
 
 POSCAR: K Bi Rb                                 
  positions in direct lattice
  No initial velocities read in
 exchange correlation table for  LEXCH =        8
   RHO(1)=    0.500       N(1)  =     2000
   RHO(2)=  100.500       N(2)  =     4000
 


--------------------------------------------------------------------------------------------------------


 ion  position               nearest neighbor table
   1  0.250  0.250  0.250-   2 3.81   3 3.81   3 3.81   3 3.81   3 3.81   2 3.81   2 3.81   2 3.81
                             4 4.40   4 4.40   4 4.40   4 4.40   4 4.40   4 4.40
   2  0.000  0.000  0.000-   1 3.81   4 3.81   4 3.81   4 3.81   1 3.81   1 3.81   1 3.81   4 3.81

   3  0.500  0.500  0.500-   4 3.81   1 3.81   1 3.81   1 3.81   1 3.81   4 3.81   4 3.81   4 3.81

   4  0.750  0.750  0.750-   3 3.81   2 3.81   2 3.81   2 3.81   3 3.81   3 3.81   3 3.81   2 3.81
                             1 4.40   1 4.40   1 4.40   1 4.40   1 4.40   1 4.40
 
  LATTYP: Found a face centered cubic cell.
 ALAT       =     8.7993220000
  
  Lattice vectors:
  
 A1 = (   0.0000000000,   4.3996610000,   4.3996610000)
 A2 = (   4.3996610000,   0.0000000000,   4.3996610000)
 A3 = (   4.3996610000,   4.3996610000,   0.0000000000)


Analysis of symmetry for initial positions (statically):
=====================================================================
 Subroutine PRICEL returns:
 Original cell was already a primitive cell.
 

 Routine SETGRP: Setting up the symmetry group for a 
 face centered cubic supercell.


 Subroutine GETGRP returns: Found 48 space group operations
 (whereof 24 operations were pure point group operations)
 out of a pool of 48 trial point group operations.


The static configuration has the point symmetry T_d .
 The point group associated with its full space group is O_h .


Analysis of symmetry for dynamics (positions and initial velocities):
=====================================================================
 Subroutine PRICEL returns:
 Original cell was already a primitive cell.
 

 Routine SETGRP: Setting up the symmetry group for a 
 face centered cubic supercell.


 Subroutine GETGRP returns: Found 48 space group operations
 (whereof 24 operations were pure point group operations)
 out of a pool of 48 trial point group operations.


The dynamic configuration has the point symmetry T_d .
 The point group associated with its full space group is O_h .


 Subroutine INISYM returns: Found 48 space group operations
 (whereof 24 operations are pure point group operations),
 and found     1 'primitive' translations

 
 
 KPOINTS: KPOINTS                                 

Automatic generation of k-mesh.
Space group operators:
 irot       det(A)        alpha          n_x          n_y          n_z        tau_x        tau_y        tau_z
    1     1.000000     0.000000     1.000000     0.000000     0.000000     0.000000     0.000000     0.000000
    2     1.000000   120.000000    -0.577350    -0.577350    -0.577350     0.000000     0.000000     0.000000
    3     1.000000   120.000000     0.577350     0.577350     0.577350     0.000000     0.000000     0.000000
    4    -1.000000    90.000000     0.000000     0.000000    -1.000000     0.000000     0.000000     0.000000
    5    -1.000000   180.000000     0.000000     0.707107     0.707107     0.000000     0.000000     0.000000
    6    -1.000000    90.000000     0.000000     1.000000     0.000000     0.000000     0.000000     0.000000
    7     1.000000   180.000000     0.000000     0.000000     1.000000     0.000000     0.000000     0.000000
    8     1.000000   120.000000    -0.577350     0.577350     0.577350     0.000000     0.000000     0.000000
    9     1.000000   120.000000    -0.577350     0.577350    -0.577350     0.000000     0.000000     0.000000
   10    -1.000000    90.000000     0.000000     0.000000     1.000000     0.000000     0.000000     0.000000
   11    -1.000000    90.000000    -1.000000     0.000000     0.000000     0.000000     0.000000     0.000000
   12    -1.000000   180.000000     0.707107     0.000000     0.707107     0.000000     0.000000     0.000000
   13     1.000000   120.000000     0.577350    -0.577350     0.577350     0.000000     0.000000     0.000000
   14     1.000000   120.000000    -0.577350    -0.577350     0.577350     0.000000     0.000000     0.000000
   15     1.000000   180.000000     1.000000     0.000000     0.000000     0.000000     0.000000     0.000000
   16    -1.000000    90.000000     0.000000    -1.000000     0.000000     0.000000     0.000000     0.000000
   17    -1.000000   180.000000     0.707107     0.707107     0.000000     0.000000     0.000000     0.000000
   18    -1.000000    90.000000     1.000000     0.000000     0.000000     0.000000     0.000000     0.000000
   19     1.000000   120.000000     0.577350    -0.577350    -0.577350     0.000000     0.000000     0.000000
   20     1.000000   180.000000     0.000000     1.000000     0.000000     0.000000     0.000000     0.000000
   21     1.000000   120.000000     0.577350     0.577350    -0.577350     0.000000     0.000000     0.000000
   22    -1.000000   180.000000     0.000000    -0.707107     0.707107     0.000000     0.000000     0.000000
   23    -1.000000   180.000000     0.707107    -0.707107     0.000000     0.000000     0.000000     0.000000
   24    -1.000000   180.000000     0.707107     0.000000    -0.707107     0.000000     0.000000     0.000000
   25    -1.000000     0.000000     1.000000     0.000000     0.000000     0.500000     0.500000     0.500000
   26    -1.000000   120.000000    -0.577350    -0.577350    -0.577350     0.500000     0.500000     0.500000
   27    -1.000000   120.000000     0.577350     0.577350     0.577350     0.500000     0.500000     0.500000
   28     1.000000    90.000000     0.000000     0.000000    -1.000000     0.500000     0.500000     0.500000
   29     1.000000   180.000000     0.000000     0.707107     0.707107     0.500000     0.500000     0.500000
   30     1.000000    90.000000     0.000000     1.000000     0.000000     0.500000     0.500000     0.500000
   31    -1.000000   180.000000     0.000000     0.000000     1.000000     0.500000     0.500000     0.500000
   32    -1.000000   120.000000    -0.577350     0.577350     0.577350     0.500000     0.500000     0.500000
   33    -1.000000   120.000000    -0.577350     0.577350    -0.577350     0.500000     0.500000     0.500000
   34     1.000000    90.000000     0.000000     0.000000     1.000000     0.500000     0.500000     0.500000
   35     1.000000    90.000000    -1.000000     0.000000     0.000000     0.500000     0.500000     0.500000
   36     1.000000   180.000000     0.707107     0.000000     0.707107     0.500000     0.500000     0.500000
   37    -1.000000   120.000000     0.577350    -0.577350     0.577350     0.500000     0.500000     0.500000
   38    -1.000000   120.000000    -0.577350    -0.577350     0.577350     0.500000     0.500000     0.500000
   39    -1.000000   180.000000     1.000000     0.000000     0.000000     0.500000     0.500000     0.500000
   40     1.000000    90.000000     0.000000    -1.000000     0.000000     0.500000     0.500000     0.500000
   41     1.000000   180.000000     0.707107     0.707107     0.000000     0.500000     0.500000     0.500000
   42     1.000000    90.000000     1.000000     0.000000     0.000000     0.500000     0.500000     0.500000
   43    -1.000000   120.000000     0.577350    -0.577350    -0.577350     0.500000     0.500000     0.500000
   44    -1.000000   180.000000     0.000000     1.000000     0.000000     0.500000     0.500000     0.500000
   45    -1.000000   120.000000     0.577350     0.577350    -0.577350     0.500000     0.500000     0.500000
   46     1.000000   180.000000     0.000000    -0.707107     0.707107     0.500000     0.500000     0.500000
   47     1.000000   180.000000     0.707107    -0.707107     0.000000     0.500000     0.500000     0.500000
   48     1.000000   180.000000     0.707107     0.000000    -0.707107     0.500000     0.500000     0.500000
 
 Subroutine IBZKPT returns following result:
 ===========================================
 
 Found     29 irreducible k-points:
 
 Following reciprocal coordinates:
            Coordinates               Weight
  0.000000  0.000000  0.000000      1.000000
  0.125000  0.000000  0.000000      8.000000
  0.250000  0.000000  0.000000      8.000000
  0.375000  0.000000  0.000000      8.000000
  0.500000  0.000000  0.000000      4.000000
  0.125000  0.125000  0.000000      6.000000
  0.250000  0.125000  0.000000     24.000000
  0.375000  0.125000  0.000000     24.000000
  0.500000  0.125000  0.000000     24.000000
 -0.375000  0.125000  0.000000     24.000000
 -0.250000  0.125000  0.000000     24.000000
 -0.125000  0.125000  0.000000     12.000000
  0.250000  0.250000  0.000000      6.000000
  0.375000  0.250000  0.000000     24.000000
  0.500000  0.250000  0.000000     24.000000
 -0.375000  0.250000  0.000000     24.000000
 -0.250000  0.250000  0.000000     12.000000
  0.375000  0.375000  0.000000      6.000000
  0.500000  0.375000  0.000000     24.000000
 -0.375000  0.375000  0.000000     12.000000
  0.500000  0.500000  0.000000      3.000000
  0.375000  0.250000  0.125000     24.000000
  0.500000  0.250000  0.125000     48.000000
 -0.375000  0.250000  0.125000     24.000000
  0.500000  0.375000  0.125000     24.000000
 -0.375000  0.375000  0.125000     48.000000
 -0.250000  0.375000  0.125000     24.000000
 -0.375000  0.500000  0.125000     12.000000
 -0.250000  0.500000  0.250000      6.000000
 
 Following cartesian coordinates:
            Coordinates               Weight
  0.000000  0.000000  0.000000      1.000000
 -0.014206  0.014206  0.014206      8.000000
 -0.028411  0.028411  0.028411      8.000000
 -0.042617  0.042617  0.042617      8.000000
 -0.056823  0.056823  0.056823      4.000000
  0.000000  0.000000  0.028411      6.000000
 -0.014206  0.014206  0.042617     24.000000
 -0.028411  0.028411  0.056823     24.000000
 -0.042617  0.042617  0.071028     24.000000
  0.056823 -0.056823 -0.028411     24.000000
  0.042617 -0.042617 -0.014206     24.000000
  0.028411 -0.028411  0.000000     12.000000
  0.000000  0.000000  0.056823      6.000000
 -0.014206  0.014206  0.071028     24.000000
 -0.028411  0.028411  0.085234     24.000000
  0.071028 -0.071028 -0.014206     24.000000
  0.056823 -0.056823  0.000000     12.000000
  0.000000  0.000000  0.085234      6.000000
 -0.014206  0.014206  0.099439     24.000000
  0.085234 -0.085234  0.000000     12.000000
  0.000000  0.000000  0.113645      3.000000
  0.000000  0.028411  0.056823     24.000000
 -0.014206  0.042617  0.071028     48.000000
  0.085234 -0.056823 -0.028411     24.000000
  0.000000  0.028411  0.085234     24.000000
  0.099439 -0.071028 -0.014206     48.000000
  0.085234 -0.056823  0.000000     24.000000
  0.113645 -0.085234  0.000000     12.000000
  0.113645 -0.056823  0.000000      6.000000
 


--------------------------------------------------------------------------------------------------------




 Dimension of arrays:
   k-points           NKPTS =     29   k-points in BZ     NKDIM =     29   number of bands    NBANDS=     25
   number of dos      NEDOS =    301   number of ions     NIONS =      4
   non local maximal  LDIM  =      6   non local SUM 2l+1 LMDIM =     18
   total plane-waves  NPLWV = 110592
   max r-space proj   IRMAX =      1   max aug-charges    IRDMAX=  30845
   dimension x,y,z NGX =    48 NGY =   48 NGZ =   48
   dimension x,y,z NGXF=    96 NGYF=   96 NGZF=   96
   support grid    NGXF=    96 NGYF=   96 NGZF=   96
   ions per type =               1   2   1
   NGX,Y,Z   is equivalent  to a cutoff of  12.83, 12.83, 12.83 a.u.
   NGXF,Y,Z  is equivalent  to a cutoff of  25.65, 25.65, 25.65 a.u.

 SYSTEM =  unknown system                          
 POSCAR =  K Bi Rb                                 

 Startparameter for this run:
   NWRITE =      2    write-flag & timer
   PREC   = acc       normal or accurate (medium, high low for compatibility)
   ISTART =      0    job   : 0-new  1-cont  2-samecut
   ICHARG =      2    charge: 1-file 2-atom 10-const
   ISPIN  =      1    spin polarized calculation?
   LNONCOLLINEAR =      F non collinear calculations
   LSORBIT =      F    spin-orbit coupling
   INIWAV =      1    electr: 0-lowe 1-rand  2-diag
   LASPH  =      F    aspherical Exc in radial PAW
   METAGGA=      F    non-selfconsistent MetaGGA calc.

 Electronic Relaxation 1
   ENCUT  =  520.0 eV  38.22 Ry    6.18 a.u.  11.57 11.57 11.57*2*pi/ulx,y,z
   ENINI  =  520.0     initial cutoff
   ENAUG  =  442.9 eV  augmentation charge cutoff
   NELM   =     60;   NELMIN=  5; NELMDL= -5     # of ELM steps 
   EDIFF  = 0.1E-04   stopping-criterion for ELM
   LREAL  =      F    real-space projection
   NLSPLINE    = F    spline interpolate recip. space projectors
   LCOMPAT=      F    compatible to vasp.4.4
   GGA_COMPAT  = T    GGA compatible to vasp.4.4-vasp.4.6
   LMAXPAW     = -100 max onsite density
   LMAXMIX     =    2 max onsite mixed and CHGCAR
   VOSKOWN=      0    Vosko Wilk Nusair interpolation
   ROPT   =    0.00000   0.00000   0.00000
 Ionic relaxation
   EDIFFG = -.1E-02   stopping-criterion for IOM
   NSW    =    100    number of steps for IOM
   NBLOCK =      1;   KBLOCK =    100    inner block; outer block 
   IBRION =      2    ionic relax: 0-MD 1-quasi-New 2-CG
   NFREE  =      1    steps in history (QN), initial steepest desc. (CG)
   ISIF   =      3    stress and relaxation
   IWAVPR =     11    prediction:  0-non 1-charg 2-wave 3-comb
   ISYM   =      2    0-nonsym 1-usesym 2-fastsym
   LCORR  =      T    Harris-Foulkes like correction to forces

   POTIM  = 0.5000    time-step for ionic-motion
   TEIN   =    0.0    initial temperature
   TEBEG  =    0.0;   TEEND  =   0.0 temperature during run
   SMASS  =  -3.00    Nose mass-parameter (am)
   estimated Nose-frequenzy (Omega)   =  0.10E-29 period in steps =****** mass=  -0.885E-27a.u.
   SCALEE = 1.0000    scale energy and forces
   NPACO  =    256;   APACO  = 16.0  distance and # of slots for P.C.
   PSTRESS=    0.0 pullay stress

  Mass of Ions in am
   POMASS = 208.98 39.10 85.47
  Ionic Valenz
   ZVAL   =  15.00  9.00  9.00
  Atomic Wigner-Seitz radii
   RWIGS  =  -1.00 -1.00 -1.00
  virtual crystal weights 
   VCA    =   1.00  1.00  1.00
   NELECT =      42.0000    total number of electrons
   NUPDOWN=      -1.0000    fix difference up-down

 DOS related values:
   EMIN   =  10.00;   EMAX   =-10.00  energy-range for DOS
   EFERMI =   0.00
   ISMEAR =     0;   SIGMA  =   0.05  broadening in eV -4-tet -1-fermi 0-gaus

 Electronic relaxation 2 (details)
   IALGO  =     38    algorithm
   LDIAG  =      T    sub-space diagonalisation (order eigenvalues)
   LSUBROT=      F    optimize rotation matrix (better conditioning)
   TURBO    =      0    0=normal 1=particle mesh
   IRESTART =      0    0=no restart 2=restart with 2 vectors
   NREBOOT  =      0    no. of reboots
   NMIN     =      0    reboot dimension
   EREF     =   0.00    reference energy to select bands
   IMIX   =      4    mixing-type and parameters
     AMIX     =   0.40;   BMIX     =  1.00
     AMIX_MAG =   1.60;   BMIX_MAG =  1.00
     AMIN     =   0.10
     WC   =   100.;   INIMIX=   1;  MIXPRE=   1;  MAXMIX= -45

 Intra band minimization:
   WEIMIN = 0.0010     energy-eigenvalue tresh-hold
   EBREAK =  0.10E-06  absolut break condition
   DEPER  =   0.30     relativ break condition  

   TIME   =   0.40     timestep for ELM

  volume/ion in A,a.u.               =      42.58       287.36
  Fermi-wavevector in a.u.,A,eV,Ry     =   1.026586  1.939966 14.338895  1.053879
  Thomas-Fermi vector in A             =   2.160487
 
 Write flags
   LWAVE        =      F    write WAVECAR
   LDOWNSAMPLE  =      F    k-point downsampling of WAVECAR
   LCHARG       =      F    write CHGCAR
   LVTOT        =      F    write LOCPOT, total local potential
   LVHAR        =      F    write LOCPOT, Hartree potential only
   LELF         =      F    write electronic localiz. function (ELF)
   LORBIT       =      0    0 simple, 1 ext, 2 COOP (PROOUT), +10 PAW based schemes


 Dipole corrections
   LMONO  =      F    monopole corrections only (constant potential shift)
   LDIPOL =      F    correct potential (dipole corrections)
   IDIPOL =      0    1-x, 2-y, 3-z, 4-all directions 
   EPSILON=  1.0000000 bulk dielectric constant

 Exchange correlation treatment:
   GGA     =    PE    GGA type
   LEXCH   =     8    internal setting for exchange type
   VOSKOWN=      0    Vosko Wilk Nusair interpolation
   LHFCALC =     F    Hartree Fock is set to
   LHFONE  =     F    Hartree Fock one center treatment
   AEXX    =    0.0000 exact exchange contribution

 Linear response parameters
   LEPSILON=     F    determine dielectric tensor
   LRPA    =     F    only Hartree local field effects (RPA)
   LNABLA  =     F    use nabla operator in PAW spheres
   LVEL    =     F    velocity operator in full k-point grid
   LINTERFAST=   F  fast interpolation
   KINTER  =     0    interpolate to denser k-point grid
   CSHIFT  =0.1000    complex shift for real part using Kramers Kronig
   OMEGAMAX=  -1.0    maximum frequency
   DEG_THRESHOLD= 0.2000000E-02 threshold for treating states as degnerate
   RTIME   =   -0.100 relaxation time in fs
  (WPLASMAI=    0.000 imaginary part of plasma frequency in eV, 0.658/RTIME)
   DFIELD  = 0.0000000 0.0000000 0.0000000 field for delta impulse in time
 
 Orbital magnetization related:
   ORBITALMAG=     F  switch on orbital magnetization
   LCHIMAG   =     F  perturbation theory with respect to B field
   DQ        =  0.001000  dq finite difference perturbation B field
   LLRAUG    =     F  two centre corrections for induced B field



--------------------------------------------------------------------------------------------------------


 conjugate gradient relaxation of ions
 charge density and potential will be updated during run
 non-spin polarized calculation
 Variant of blocked Davidson
 Davidson routine will perform the subspace rotation
 perform sub-space diagonalisation
    after iterative eigenvector-optimisation
 modified Broyden-mixing scheme, WC =      100.0
 initial mixing is a Kerker type mixing with AMIX =  0.4000 and BMIX =      1.0000
 Hartree-type preconditioning will be used
 using additional bands            4
 reciprocal scheme for non local part
 use partial core corrections
 calculate Harris-corrections to forces 
   (improved forces if not selfconsistent)
 use gradient corrections 
 use of overlap-Matrix (Vanderbilt PP)
 Gauss-broadening in eV      SIGMA  =   0.05


--------------------------------------------------------------------------------------------------------


  energy-cutoff  :      520.00
  volume of cell :      170.33
      direct lattice vectors                 reciprocal lattice vectors
     0.000000000  4.399661000  4.399661000    -0.113645119  0.113645119  0.113645119
     4.399661000  0.000000000  4.399661000     0.113645119 -0.113645119  0.113645119
     4.399661000  4.399661000  0.000000000     0.113645119  0.113645119 -0.113645119

  length of vectors
     6.222060256  6.222060256  6.222060256     0.196839121  0.196839121  0.196839121


 
 k-points in units of 2pi/SCALE and weight: KPOINTS                                 
   0.00000000  0.00000000  0.00000000       0.002
  -0.01420564  0.01420564  0.01420564       0.016
  -0.02841128  0.02841128  0.02841128       0.016
  -0.04261692  0.04261692  0.04261692       0.016
  -0.05682256  0.05682256  0.05682256       0.008
   0.00000000  0.00000000  0.02841128       0.012
  -0.01420564  0.01420564  0.04261692       0.047
  -0.02841128  0.02841128  0.05682256       0.047
  -0.04261692  0.04261692  0.07102820       0.047
   0.05682256 -0.05682256 -0.02841128       0.047
   0.04261692 -0.04261692 -0.01420564       0.047
   0.02841128 -0.02841128  0.00000000       0.023
   0.00000000  0.00000000  0.05682256       0.012
  -0.01420564  0.01420564  0.07102820       0.047
  -0.02841128  0.02841128  0.08523384       0.047
   0.07102820 -0.07102820 -0.01420564       0.047
   0.05682256 -0.05682256  0.00000000       0.023
   0.00000000  0.00000000  0.08523384       0.012
  -0.01420564  0.01420564  0.09943948       0.047
   0.08523384 -0.08523384  0.00000000       0.023
   0.00000000  0.00000000  0.11364512       0.006
   0.00000000  0.02841128  0.05682256       0.047
  -0.01420564  0.04261692  0.07102820       0.094
   0.08523384 -0.05682256 -0.02841128       0.047
   0.00000000  0.02841128  0.08523384       0.047
   0.09943948 -0.07102820 -0.01420564       0.094
   0.08523384 -0.05682256  0.00000000       0.047
   0.11364512 -0.08523384  0.00000000       0.023
   0.11364512 -0.05682256  0.00000000       0.012
 
 k-points in reciprocal lattice and weights: KPOINTS                                 
   0.00000000  0.00000000  0.00000000       0.002
   0.12500000  0.00000000  0.00000000       0.016
   0.25000000  0.00000000  0.00000000       0.016
   0.37500000  0.00000000  0.00000000       0.016
   0.50000000  0.00000000  0.00000000       0.008
   0.12500000  0.12500000  0.00000000       0.012
   0.25000000  0.12500000  0.00000000       0.047
   0.37500000  0.12500000  0.00000000       0.047
   0.50000000  0.12500000  0.00000000       0.047
  -0.37500000  0.12500000  0.00000000       0.047
  -0.25000000  0.12500000  0.00000000       0.047
  -0.12500000  0.12500000  0.00000000       0.023
   0.25000000  0.25000000  0.00000000       0.012
   0.37500000  0.25000000  0.00000000       0.047
   0.50000000  0.25000000  0.00000000       0.047
  -0.37500000  0.25000000  0.00000000       0.047
  -0.25000000  0.25000000  0.00000000       0.023
   0.37500000  0.37500000  0.00000000       0.012
   0.50000000  0.37500000  0.00000000       0.047
  -0.37500000  0.37500000  0.00000000       0.023
   0.50000000  0.50000000  0.00000000       0.006
   0.37500000  0.25000000  0.12500000       0.047
   0.50000000  0.25000000  0.12500000       0.094
  -0.37500000  0.25000000  0.12500000       0.047
   0.50000000  0.37500000  0.12500000       0.047
  -0.37500000  0.37500000  0.12500000       0.094
  -0.25000000  0.37500000  0.12500000       0.047
  -0.37500000  0.50000000  0.12500000       0.023
  -0.25000000  0.50000000  0.25000000       0.012
 
 position of ions in fractional coordinates (direct lattice) 
   0.24999994  0.24999994  0.24999994
   0.00000000  0.00000000  0.00000000
   0.49999989  0.49999989  0.49999989
   0.74999983  0.74999983  0.74999983
 
 position of ions in cartesian coordinates  (Angst):
   2.19983000  2.19983000  2.19983000
   0.00000000  0.00000000  0.00000000
   4.39966000  4.39966000  4.39966000
   6.59949000  6.59949000  6.59949000
 


--------------------------------------------------------------------------------------------------------


 k-point  1 :   0.0000 0.0000 0.0000  plane waves:    4621
 k-point  2 :   0.1250 0.0000 0.0000  plane waves:    4597
 k-point  3 :   0.2500 0.0000 0.0000  plane waves:    4597
 k-point  4 :   0.3750 0.0000 0.0000  plane waves:    4588
 k-point  5 :   0.5000 0.0000 0.0000  plane waves:    4584
 k-point  6 :   0.1250 0.1250 0.0000  plane waves:    4593
 k-point  7 :   0.2500 0.1250 0.0000  plane waves:    4611
 k-point  8 :   0.3750 0.1250 0.0000  plane waves:    4599
 k-point  9 :   0.5000 0.1250 0.0000  plane waves:    4582
 k-point 10 :  -0.3750 0.1250 0.0000  plane waves:    4580
 k-point 11 :  -0.2500 0.1250 0.0000  plane waves:    4599
 k-point 12 :  -0.1250 0.1250 0.0000  plane waves:    4603
 k-point 13 :   0.2500 0.2500 0.0000  plane waves:    4584
 k-point 14 :   0.3750 0.2500 0.0000  plane waves:    4596
 k-point 15 :   0.5000 0.2500 0.0000  plane waves:    4578
 k-point 16 :  -0.3750 0.2500 0.0000  plane waves:    4574
 k-point 17 :  -0.2500 0.2500 0.0000  plane waves:    4600
 k-point 18 :   0.3750 0.3750 0.0000  plane waves:    4600
 k-point 19 :   0.5000 0.3750 0.0000  plane waves:    4581
 k-point 20 :  -0.3750 0.3750 0.0000  plane waves:    4580
 k-point 21 :   0.5000 0.5000 0.0000  plane waves:    4568
 k-point 22 :   0.3750 0.2500 0.1250  plane waves:    4595
 k-point 23 :   0.5000 0.2500 0.1250  plane waves:    4588
 k-point 24 :  -0.3750 0.2500 0.1250  plane waves:    4562
 k-point 25 :   0.5000 0.3750 0.1250  plane waves:    4599
 k-point 26 :  -0.3750 0.3750 0.1250  plane waves:    4575
 k-point 27 :  -0.2500 0.3750 0.1250  plane waves:    4569
 k-point 28 :  -0.3750 0.5000 0.1250  plane waves:    4580
 k-point 29 :  -0.2500 0.5000 0.2500  plane waves:    4600

 maximum and minimum number of plane-waves per node :       685      645

 maximum number of plane-waves:      4621
 maximum index in each direction: 
   IXMAX=   11   IYMAX=   11   IZMAX=   11
   IXMIN=  -12   IYMIN=  -12   IZMIN=  -11


 parallel 3D FFT for wavefunctions:
    minimum data exchange during FFTs selected (reduces bandwidth)
 parallel 3D FFT for charge:
    minimum data exchange during FFTs selected (reduces bandwidth)


 total amount of memory used by VASP MPI-rank0    59997. kBytes
=======================================================================

   base      :      30000. kBytes
   nonl-proj :       8260. kBytes
   fftplans  :       4867. kBytes
   grid      :       9037. kBytes
   one-center:         15. kBytes
   wavefun   :       7818. kBytes
 
     INWAV:  cpu time    0.0000: real time    0.0000
 Broyden mixing: mesh for mixing (old mesh)
   NGX = 23   NGY = 23   NGZ = 23
  (NGX  = 96   NGY  = 96   NGZ  = 96)
  gives a total of  12167 points

 initial charge density was supplied:
 charge density of overlapping atoms calculated
 number of electron      42.0000000 magnetization 
 keeping initial charge density in first step


--------------------------------------------------------------------------------------------------------


 Maximum index for augmentation-charges         4433 (set IRDMAX)


--------------------------------------------------------------------------------------------------------


 First call to EWALD:  gamma=   0.320
 Maximum number of real-space cells 3x 3x 3
 Maximum number of reciprocal cells 3x 3x 3

    FEWALD:  cpu time    0.0017: real time    0.0017


--------------------------------------- Iteration      1(   1)  ---------------------------------------


    POTLOK:  cpu time    0.0783: real time    0.0813
    SETDIJ:  cpu time    0.0094: real time    0.0095
     EDDAV:  cpu time    0.4879: real time    0.4882
       DOS:  cpu time    0.0007: real time    0.0007
    --------------------------------------------
      LOOP:  cpu time    0.5763: real time    0.5797

 eigenvalue-minimisations  :  1450
 total energy-change (2. order) : 0.3902991E+03  (-0.2006454E+04)
 number of electron      42.0000000 magnetization 
 augmentation part       42.0000000 magnetization 

 Free energy of the ion-electron system (eV)
  ---------------------------------------------------
  alpha Z        PSCENC =       138.98705463
  Ewald energy   TEWEN  =     -2707.82090633
  -Hartree energ DENC   =     -1204.25484682
  -exchange      EXHF   =         0.00000000
  -V(xc)+E(xc)   XCENC  =       148.25506442
  PAW double counting   =      3368.52235606    -3324.32309837
  entropy T*S    EENTRO =        -0.00189609
  eigenvalues    EBANDS =      -200.77850879
  atomic energy  EATOM  =      4171.71390993
  Solvation  Ediel_sol  =         0.00000000
  ---------------------------------------------------
  free energy    TOTEN  =       390.29912864 eV

  energy without entropy =      390.30102473  energy(sigma->0) =      390.30007669


--------------------------------------------------------------------------------------------------------




--------------------------------------- Iteration      1(   2)  ---------------------------------------


     EDDAV:  cpu time    0.5004: real time    0.5027
       DOS:  cpu time    0.0005: real time    0.0005
    --------------------------------------------
      LOOP:  cpu time    0.5010: real time    0.5032

 eigenvalue-minimisations  :  1640
 total energy-change (2. order) :-0.3667934E+03  (-0.3625716E+03)
 number of electron      42.0000000 magnetization 
 augmentation part       42.0000000 magnetization 

 Free energy of the ion-electron system (eV)
  ---------------------------------------------------
  alpha Z        PSCENC =       138.98705463
  Ewald energy   TEWEN  =     -2707.82090633
  -Hartree energ DENC   =     -1204.25484682
  -exchange      EXHF   =         0.00000000
  -V(xc)+E(xc)   XCENC  =       148.25506442
  PAW double counting   =      3368.52235606    -3324.32309837
  entropy T*S    EENTRO =        -0.00022570
  eigenvalues    EBANDS =      -567.57355607
  atomic energy  EATOM  =      4171.71390993
  Solvation  Ediel_sol  =         0.00000000
  ---------------------------------------------------
  free energy    TOTEN  =        23.50575176 eV

  energy without entropy =       23.50597746  energy(sigma->0) =       23.50586461


--------------------------------------------------------------------------------------------------------




--------------------------------------- Iteration      1(   3)  ---------------------------------------


     EDDAV:  cpu time    0.6375: real time    0.6379
       DOS:  cpu time    0.0003: real time    0.0003
    --------------------------------------------
      LOOP:  cpu time    0.6379: real time    0.6382

 eigenvalue-minimisations  :  2198
 total energy-change (2. order) :-0.3125811E+02  (-0.3120030E+02)
 number of electron      42.0000000 magnetization 
 augmentation part       42.0000000 magnetization 

 Free energy of the ion-electron system (eV)
  ---------------------------------------------------
  alpha Z        PSCENC =       138.98705463
  Ewald energy   TEWEN  =     -2707.82090633
  -Hartree energ DENC   =     -1204.25484682
  -exchange      EXHF   =         0.00000000
  -V(xc)+E(xc)   XCENC  =       148.25506442
  PAW double counting   =      3368.52235606    -3324.32309837
  entropy T*S    EENTRO =        -0.00000000
  eigenvalues    EBANDS =      -598.83189459
  atomic energy  EATOM  =      4171.71390993
  Solvation  Ediel_sol  =         0.00000000
  ---------------------------------------------------
  free energy    TOTEN  =        -7.75236107 eV

  energy without entropy =       -7.75236107  energy(sigma->0) =       -7.75236107


--------------------------------------------------------------------------------------------------------




--------------------------------------- Iteration      1(   4)  ---------------------------------------


     EDDAV:  cpu time    0.6569: real time    0.6584
       DOS:  cpu time    0.0003: real time    0.0003
    --------------------------------------------
      LOOP:  cpu time    0.6571: real time    0.6586

 eigenvalue-minimisations  :  2282
 total energy-change (2. order) :-0.1401997E+01  (-0.1400560E+01)
 number of electron      42.0000000 magnetization 
 augmentation part       42.0000000 magnetization 

 Free energy of the ion-electron system (eV)
  ---------------------------------------------------
  alpha Z        PSCENC =       138.98705463
  Ewald energy   TEWEN  =     -2707.82090633
  -Hartree energ DENC   =     -1204.25484682
  -exchange      EXHF   =         0.00000000
  -V(xc)+E(xc)   XCENC  =       148.25506442
  PAW double counting   =      3368.52235606    -3324.32309837
  entropy T*S    EENTRO =        -0.00000000
  eigenvalues    EBANDS =      -600.23389125
  atomic energy  EATOM  =      4171.71390993
  Solvation  Ediel_sol  =         0.00000000
  ---------------------------------------------------
  free energy    TOTEN  =        -9.15435773 eV

  energy without entropy =       -9.15435773  energy(sigma->0) =       -9.15435773


--------------------------------------------------------------------------------------------------------




--------------------------------------- Iteration      1(   5)  ---------------------------------------


     EDDAV:  cpu time    0.6427: real time    0.6431
       DOS:  cpu time    0.0003: real time    0.0003
    CHARGE:  cpu time    0.0605: real time    0.0606
    MIXING:  cpu time    0.0062: real time    0.0062
    --------------------------------------------
      LOOP:  cpu time    0.7096: real time    0.7102

 eigenvalue-minimisations  :  2203
 total energy-change (2. order) :-0.3934458E-01  (-0.3934168E-01)
 number of electron      41.9999998 magnetization 
 augmentation part        8.5379979 magnetization 

 Broyden mixing:
  rms(total) = 0.48933E+00    rms(broyden)= 0.48933E+00
  rms(prec ) = 0.10632E+01
  weight for this iteration     100.00

 Free energy of the ion-electron system (eV)
  ---------------------------------------------------
  alpha Z        PSCENC =       138.98705463
  Ewald energy   TEWEN  =     -2707.82090633
  -Hartree energ DENC   =     -1204.25484682
  -exchange      EXHF   =         0.00000000
  -V(xc)+E(xc)   XCENC  =       148.25506442
  PAW double counting   =      3368.52235606    -3324.32309837
  entropy T*S    EENTRO =        -0.00000000
  eigenvalues    EBANDS =      -600.27323584
  atomic energy  EATOM  =      4171.71390993
  Solvation  Ediel_sol  =         0.00000000
  ---------------------------------------------------
  free energy    TOTEN  =        -9.19370231 eV

  energy without entropy =       -9.19370231  energy(sigma->0) =       -9.19370231


--------------------------------------------------------------------------------------------------------




--------------------------------------- Iteration      1(   6)  ---------------------------------------


    POTLOK:  cpu time    0.0834: real time    0.0838
    SETDIJ:  cpu time    0.0056: real time    0.0056
     EDDAV:  cpu time    0.5129: real time    0.5130
       DOS:  cpu time    0.0003: real time    0.0003
    CHARGE:  cpu time    0.0595: real time    0.0595
    MIXING:  cpu time    0.0048: real time    0.0048
    --------------------------------------------
      LOOP:  cpu time    0.6666: real time    0.6670

 eigenvalue-minimisations  :  1622
 total energy-change (2. order) : 0.7090367E+00  (-0.1732454E+00)
 number of electron      41.9999998 magnetization 
 augmentation part        8.5628032 magnetization 

 Broyden mixing:
  rms(total) = 0.38331E+00    rms(broyden)= 0.38331E+00
  rms(prec ) = 0.57136E+00
  weight for this iteration     100.00

 eigenvalues of (default mixing * dielectric matrix)
  average eigenvalue GAMMA=   1.8686
  1.8686

 Free energy of the ion-electron system (eV)
  ---------------------------------------------------
  alpha Z        PSCENC =       138.98705463
  Ewald energy   TEWEN  =     -2707.82090633
  -Hartree energ DENC   =     -1206.23285438
  -exchange      EXHF   =         0.00000000
  -V(xc)+E(xc)   XCENC  =       148.20031910
  PAW double counting   =      3439.93145635    -3399.66630660
  entropy T*S    EENTRO =        -0.00000000
  eigenvalues    EBANDS =      -593.59733828
  atomic energy  EATOM  =      4171.71390993
  Solvation  Ediel_sol  =         0.00000000
  ---------------------------------------------------
  free energy    TOTEN  =        -8.48466558 eV

  energy without entropy =       -8.48466558  energy(sigma->0) =       -8.48466558


--------------------------------------------------------------------------------------------------------




--------------------------------------- Iteration      1(   7)  ---------------------------------------


    POTLOK:  cpu time    0.0833: real time    0.0838
    SETDIJ:  cpu time    0.0057: real time    0.0057
     EDDAV:  cpu time    0.6236: real time    0.6241
       DOS:  cpu time    0.0005: real time    0.0005
    CHARGE:  cpu time    0.0571: real time    0.0571
    MIXING:  cpu time    0.0039: real time    0.0039
    --------------------------------------------
      LOOP:  cpu time    0.7743: real time    0.7752

 eigenvalue-minimisations  :  2157
 total energy-change (2. order) : 0.1270562E+00  (-0.8625433E-01)
 number of electron      41.9999998 magnetization 
 augmentation part        8.5619140 magnetization 

 Broyden mixing:
  rms(total) = 0.21011E+00    rms(broyden)= 0.21011E+00
  rms(prec ) = 0.24302E+00
  weight for this iteration     100.00

 eigenvalues of (default mixing * dielectric matrix)
  average eigenvalue GAMMA=   2.0178
  2.0178  2.0178

 Free energy of the ion-electron system (eV)
  ---------------------------------------------------
  alpha Z        PSCENC =       138.98705463
  Ewald energy   TEWEN  =     -2707.82090633
  -Hartree energ DENC   =     -1204.37813123
  -exchange      EXHF   =         0.00000000
  -V(xc)+E(xc)   XCENC  =       148.07530222
  PAW double counting   =      3483.04139472    -3444.26974389
  entropy T*S    EENTRO =        -0.00003151
  eigenvalues    EBANDS =      -593.70645794
  atomic energy  EATOM  =      4171.71390993
  Solvation  Ediel_sol  =         0.00000000
  ---------------------------------------------------
  free energy    TOTEN  =        -8.35760941 eV

  energy without entropy =       -8.35757789  energy(sigma->0) =       -8.35759365


--------------------------------------------------------------------------------------------------------




--------------------------------------- Iteration      1(   8)  ---------------------------------------


    POTLOK:  cpu time    0.0811: real time    0.0815
    SETDIJ:  cpu time    0.0052: real time    0.0052
     EDDAV:  cpu time    0.5476: real time    0.5478
       DOS:  cpu time    0.0005: real time    0.0005
    CHARGE:  cpu time    0.0572: real time    0.0572
    MIXING:  cpu time    0.0040: real time    0.0040
    --------------------------------------------
      LOOP:  cpu time    0.6956: real time    0.6963

 eigenvalue-minimisations  :  1839
 total energy-change (2. order) :-0.7592699E-02  (-0.1194784E-01)
 number of electron      41.9999998 magnetization 
 augmentation part        8.5484715 magnetization 

 Broyden mixing:
  rms(total) = 0.25117E-01    rms(broyden)= 0.25117E-01
  rms(prec ) = 0.62135E-01
  weight for this iteration     100.00

 eigenvalues of (default mixing * dielectric matrix)
  average eigenvalue GAMMA=   1.7810
  2.2020  1.5706  1.5706

 Free energy of the ion-electron system (eV)
  ---------------------------------------------------
  alpha Z        PSCENC =       138.98705463
  Ewald energy   TEWEN  =     -2707.82090633
  -Hartree energ DENC   =     -1202.12655220
  -exchange      EXHF   =         0.00000000
  -V(xc)+E(xc)   XCENC  =       148.04453240
  PAW double counting   =      3490.60785647    -3449.96026002
  entropy T*S    EENTRO =        -0.00000826
  eigenvalues    EBANDS =      -597.81082873
  atomic energy  EATOM  =      4171.71390993
  Solvation  Ediel_sol  =         0.00000000
  ---------------------------------------------------
  free energy    TOTEN  =        -8.36520211 eV

  energy without entropy =       -8.36519385  energy(sigma->0) =       -8.36519798


--------------------------------------------------------------------------------------------------------




--------------------------------------- Iteration      1(   9)  ---------------------------------------


    POTLOK:  cpu time    0.0810: real time    0.0814
    SETDIJ:  cpu time    0.0049: real time    0.0049
     EDDAV:  cpu time    0.5276: real time    0.5278
       DOS:  cpu time    0.0006: real time    0.0006
    CHARGE:  cpu time    0.0570: real time    0.0570
    MIXING:  cpu time    0.0039: real time    0.0039
    --------------------------------------------
      LOOP:  cpu time    0.6750: real time    0.6755

 eigenvalue-minimisations  :  1760
 total energy-change (2. order) : 0.1550217E-02  (-0.3568237E-02)
 number of electron      41.9999998 magnetization 
 augmentation part        8.5474991 magnetization 

 Broyden mixing:
  rms(total) = 0.19404E-01    rms(broyden)= 0.19404E-01
  rms(prec ) = 0.34481E-01
  weight for this iteration     100.00

 eigenvalues of (default mixing * dielectric matrix)
  average eigenvalue GAMMA=   1.7837
  2.5746  2.1959  0.9960  1.3683

 Free energy of the ion-electron system (eV)
  ---------------------------------------------------
  alpha Z        PSCENC =       138.98705463
  Ewald energy   TEWEN  =     -2707.82090633
  -Hartree energ DENC   =     -1203.38752711
  -exchange      EXHF   =         0.00000000
  -V(xc)+E(xc)   XCENC  =       148.08748905
  PAW double counting   =      3499.97787116    -3459.49343881
  entropy T*S    EENTRO =        -0.00004667
  eigenvalues    EBANDS =      -596.42805773
  atomic energy  EATOM  =      4171.71390993
  Solvation  Ediel_sol  =         0.00000000
  ---------------------------------------------------
  free energy    TOTEN  =        -8.36365189 eV

  energy without entropy =       -8.36360521  energy(sigma->0) =       -8.36362855


--------------------------------------------------------------------------------------------------------




--------------------------------------- Iteration      1(  10)  ---------------------------------------


    POTLOK:  cpu time    0.0813: real time    0.0818
    SETDIJ:  cpu time    0.0051: real time    0.0051
     EDDAV:  cpu time    0.6068: real time    0.6069
       DOS:  cpu time    0.0006: real time    0.0006
    CHARGE:  cpu time    0.0591: real time    0.0591
    MIXING:  cpu time    0.0042: real time    0.0042
    --------------------------------------------
      LOOP:  cpu time    0.7572: real time    0.7578

 eigenvalue-minimisations  :  2080
 total energy-change (2. order) : 0.7005854E-04  (-0.5080912E-03)
 number of electron      41.9999998 magnetization 
 augmentation part        8.5461337 magnetization 

 Broyden mixing:
  rms(total) = 0.55198E-02    rms(broyden)= 0.55198E-02
  rms(prec ) = 0.80876E-02
  weight for this iteration     100.00

 eigenvalues of (default mixing * dielectric matrix)
  average eigenvalue GAMMA=   1.9117
  2.7623  2.6612  1.7419  1.0174  1.3756

 Free energy of the ion-electron system (eV)
  ---------------------------------------------------
  alpha Z        PSCENC =       138.98705463
  Ewald energy   TEWEN  =     -2707.82090633
  -Hartree energ DENC   =     -1203.51089577
  -exchange      EXHF   =         0.00000000
  -V(xc)+E(xc)   XCENC  =       148.10422530
  PAW double counting   =      3500.06142825    -3459.12047775
  entropy T*S    EENTRO =        -0.00002255
  eigenvalues    EBANDS =      -596.77789755
  atomic energy  EATOM  =      4171.71390993
  Solvation  Ediel_sol  =         0.00000000
  ---------------------------------------------------
  free energy    TOTEN  =        -8.36358183 eV

  energy without entropy =       -8.36355928  energy(sigma->0) =       -8.36357056


--------------------------------------------------------------------------------------------------------




--------------------------------------- Iteration      1(  11)  ---------------------------------------


    POTLOK:  cpu time    0.0835: real time    0.0839
    SETDIJ:  cpu time    0.0054: real time    0.0054
     EDDAV:  cpu time    0.6353: real time    0.6356
       DOS:  cpu time    0.0006: real time    0.0006
    CHARGE:  cpu time    0.0571: real time    0.0571
    MIXING:  cpu time    0.0040: real time    0.0040
    --------------------------------------------
      LOOP:  cpu time    0.7860: real time    0.7867

 eigenvalue-minimisations  :  2217
 total energy-change (2. order) :-0.5625889E-04  (-0.3315202E-04)
 number of electron      41.9999998 magnetization 
 augmentation part        8.5472838 magnetization 

 Broyden mixing:
  rms(total) = 0.29796E-02    rms(broyden)= 0.29796E-02
  rms(prec ) = 0.61631E-02
  weight for this iteration     100.00

 eigenvalues of (default mixing * dielectric matrix)
  average eigenvalue GAMMA=   1.7522
  3.0719  2.2847  1.9911  1.2794  0.9431  0.9431

 Free energy of the ion-electron system (eV)
  ---------------------------------------------------
  alpha Z        PSCENC =       138.98705463
  Ewald energy   TEWEN  =     -2707.82090633
  -Hartree energ DENC   =     -1203.34684257
  -exchange      EXHF   =         0.00000000
  -V(xc)+E(xc)   XCENC  =       148.09942264
  PAW double counting   =      3502.55047658    -3461.57769202
  entropy T*S    EENTRO =        -0.00002163
  eigenvalues    EBANDS =      -596.96903932
  atomic energy  EATOM  =      4171.71390993
  Solvation  Ediel_sol  =         0.00000000
  ---------------------------------------------------
  free energy    TOTEN  =        -8.36363809 eV

  energy without entropy =       -8.36361645  energy(sigma->0) =       -8.36362727


--------------------------------------------------------------------------------------------------------




--------------------------------------- Iteration      1(  12)  ---------------------------------------


    POTLOK:  cpu time    0.0811: real time    0.0815
    SETDIJ:  cpu time    0.0056: real time    0.0056
     EDDAV:  cpu time    0.4687: real time    0.4688
       DOS:  cpu time    0.0005: real time    0.0005
    CHARGE:  cpu time    0.0574: real time    0.0574
    MIXING:  cpu time    0.0043: real time    0.0042
    --------------------------------------------
      LOOP:  cpu time    0.6176: real time    0.6181

 eigenvalue-minimisations  :  1604
 total energy-change (2. order) : 0.2822154E-04  (-0.1553908E-04)
 number of electron      41.9999998 magnetization 
 augmentation part        8.5474034 magnetization 

 Broyden mixing:
  rms(total) = 0.62877E-03    rms(broyden)= 0.62876E-03
  rms(prec ) = 0.95620E-03
  weight for this iteration     100.00

 eigenvalues of (default mixing * dielectric matrix)
  average eigenvalue GAMMA=   1.8281
  3.0905  2.6237  1.9060  1.9060  0.9860  1.1424  1.1424

 Free energy of the ion-electron system (eV)
  ---------------------------------------------------
  alpha Z        PSCENC =       138.98705463
  Ewald energy   TEWEN  =     -2707.82090633
  -Hartree energ DENC   =     -1203.40871446
  -exchange      EXHF   =         0.00000000
  -V(xc)+E(xc)   XCENC  =       148.10077517
  PAW double counting   =      3502.78722570    -3461.85850667
  entropy T*S    EENTRO =        -0.00002431
  eigenvalues    EBANDS =      -596.86442353
  atomic energy  EATOM  =      4171.71390993
  Solvation  Ediel_sol  =         0.00000000
  ---------------------------------------------------
  free energy    TOTEN  =        -8.36360987 eV

  energy without entropy =       -8.36358556  energy(sigma->0) =       -8.36359771


--------------------------------------------------------------------------------------------------------




--------------------------------------- Iteration      1(  13)  ---------------------------------------


    POTLOK:  cpu time    0.0815: real time    0.0819
    SETDIJ:  cpu time    0.0054: real time    0.0054
     EDDAV:  cpu time    0.4548: real time    0.4549
       DOS:  cpu time    0.0005: real time    0.0005
    --------------------------------------------
      LOOP:  cpu time    0.5421: real time    0.5426

 eigenvalue-minimisations  :  1390
 total energy-change (2. order) :-0.1479184E-06  (-0.5493654E-06)
 number of electron      41.9999998 magnetization 
 augmentation part        8.5474034 magnetization 

 Free energy of the ion-electron system (eV)
  ---------------------------------------------------
  alpha Z        PSCENC =       138.98705463
  Ewald energy   TEWEN  =     -2707.82090633
  -Hartree energ DENC   =     -1203.40864180
  -exchange      EXHF   =         0.00000000
  -V(xc)+E(xc)   XCENC  =       148.10069876
  PAW double counting   =      3502.54228409    -3461.62604769
  entropy T*S    EENTRO =        -0.00002430
  eigenvalues    EBANDS =      -596.85193730
  atomic energy  EATOM  =      4171.71390993
  Solvation  Ediel_sol  =         0.00000000
  ---------------------------------------------------
  free energy    TOTEN  =        -8.36361001 eV

  energy without entropy =       -8.36358572  energy(sigma->0) =       -8.36359787


--------------------------------------------------------------------------------------------------------




 average (electrostatic) potential at core
  the test charge radii are     1.0856  1.1045  1.1097
  (the norm of the test charge is              1.0000)
       1-107.6698       2 -36.7329       3 -36.7329       4 -39.1433
 
 
 
 E-fermi :   1.4838     XC(G=0):  -7.5769     alpha+bet : -6.9953


 k-point     1 :       0.0000    0.0000    0.0000
  band No.  band energies     occupation 
      1     -29.4663      2.00000
      2     -29.4556      2.00000
      3     -26.8203      2.00000
      4     -19.4617      2.00000
      5     -19.4617      2.00000
      6     -19.4617      2.00000
      7     -19.4557      2.00000
      8     -19.4557      2.00000
      9     -13.0019      2.00000
     10     -13.0019      2.00000
     11     -13.0019      2.00000
     12     -12.9521      2.00000
     13     -12.9521      2.00000
     14     -12.9521      2.00000
     15     -10.9240      2.00000
     16     -10.9240      2.00000
     17     -10.9240      2.00000
     18      -7.4858      2.00000
     19       1.3947      1.98831
     20       1.3947      1.98830
     21       1.3947      1.98830
     22       1.5489      0.06545
     23       4.0105      0.00000
     24       4.0105      0.00000
     25       4.5755      0.00000

 k-point     2 :       0.1250    0.0000    0.0000
  band No.  band energies     occupation 
      1     -29.4658      2.00000
      2     -29.4560      2.00000
      3     -26.8204      2.00000
      4     -19.4616      2.00000
      5     -19.4616      2.00000
      6     -19.4616      2.00000
      7     -19.4557      2.00000
      8     -19.4557      2.00000
      9     -13.0028      2.00000
     10     -13.0005      2.00000
     11     -13.0005      2.00000
     12     -12.9543      2.00000
     13     -12.9543      2.00000
     14     -12.9530      2.00000
     15     -10.9262      2.00000
     16     -10.9231      2.00000
     17     -10.9231      2.00000
     18      -7.4709      2.00000
     19       0.8552      2.00000
     20       1.3595      1.99956
     21       1.3595      1.99956
     22       2.2269      0.00000
     23       4.1312      0.00000
     24       4.1312      0.00000
     25       4.4925      0.00000

 k-point     3 :       0.2500    0.0000    0.0000
  band No.  band energies     occupation 
      1     -29.4646      2.00000
      2     -29.4571      2.00000
      3     -26.8206      2.00000
      4     -19.4616      2.00000
      5     -19.4616      2.00000
      6     -19.4614      2.00000
      7     -19.4557      2.00000
      8     -19.4557      2.00000
      9     -13.0026      2.00000
     10     -12.9964      2.00000
     11     -12.9964      2.00000
     12     -12.9605      2.00000
     13     -12.9605      2.00000
     14     -12.9581      2.00000
     15     -10.9306      2.00000
     16     -10.9210      2.00000
     17     -10.9210      2.00000
     18      -7.4359      2.00000
     19       0.4322      2.00000
     20       1.2834      2.00000
     21       1.2834      2.00000
     22       2.9277      0.00000
     23       4.4247      0.00000
     24       4.4247      0.00000
     25       4.5253      0.00000

 k-point     4 :       0.3750    0.0000    0.0000
  band No.  band energies     occupation 
      1     -29.4628      2.00000
      2     -29.4587      2.00000
      3     -26.8208      2.00000
      4     -19.4615      2.00000
      5     -19.4615      2.00000
      6     -19.4612      2.00000
      7     -19.4557      2.00000
      8     -19.4557      2.00000
      9     -12.9977      2.00000
     10     -12.9898      2.00000
     11     -12.9898      2.00000
     12     -12.9692      2.00000
     13     -12.9692      2.00000
     14     -12.9682      2.00000
     15     -10.9339      2.00000
     16     -10.9188      2.00000
     17     -10.9188      2.00000
     18      -7.4024      2.00000
     19       0.1880      2.00000
     20       1.2169      2.00000
     21       1.2170      2.00000
     22       3.3161      0.00000
     23       4.7189      0.00000
     24       4.7189      0.00000
     25       4.9799      0.00000

 k-point     5 :       0.5000    0.0000    0.0000
  band No.  band energies     occupation 
      1     -29.4607      2.00000
      2     -29.4607      2.00000
      3     -26.8209      2.00000
      4     -19.4615      2.00000
      5     -19.4615      2.00000
      6     -19.4611      2.00000
      7     -19.4557      2.00000
      8     -19.4557      2.00000
      9     -12.9918      2.00000
     10     -12.9840      2.00000
     11     -12.9840      2.00000
     12     -12.9763      2.00000
     13     -12.9759      2.00000
     14     -12.9759      2.00000
     15     -10.9350      2.00000
     16     -10.9180      2.00000
     17     -10.9180      2.00000
     18      -7.3890      2.00000
     19       0.1080      2.00000
     20       1.1917      2.00000
     21       1.1917      2.00000
     22       3.4568      0.00000
     23       4.7166      0.00000
     24       4.8407      0.00000
     25       4.8407      0.00000

 k-point     6 :       0.1250    0.1250    0.0000
  band No.  band energies     occupation 
      1     -29.4657      2.00000
      2     -29.4561      2.00000
      3     -26.8205      2.00000
      4     -19.4616      2.00000
      5     -19.4616      2.00000
      6     -19.4616      2.00000
      7     -19.4557      2.00000
      8     -19.4557      2.00000
      9     -13.0061      2.00000
     10     -13.0061      2.00000
     11     -12.9915      2.00000
     12     -12.9636      2.00000
     13     -12.9497      2.00000
     14     -12.9497      2.00000
     15     -10.9278      2.00000
     16     -10.9224      2.00000
     17     -10.9224      2.00000
     18      -7.4665      2.00000
     19       0.7678      2.00000
     20       1.3740      1.99810
     21       1.3740      1.99810
     22       2.3092      0.00000
     23       4.1167      0.00000
     24       4.2172      0.00000
     25       4.2860      0.00000

 k-point     7 :       0.2500    0.1250    0.0000
  band No.  band energies     occupation 
      1     -29.4648      2.00000
      2     -29.4569      2.00000
      3     -26.8206      2.00000
      4     -19.4616      2.00000
      5     -19.4615      2.00000
      6     -19.4614      2.00000
      7     -19.4557      2.00000
      8     -19.4557      2.00000
      9     -13.0091      2.00000
     10     -13.0081      2.00000
     11     -12.9814      2.00000
     12     -12.9755      2.00000
     13     -12.9499      2.00000
     14     -12.9498      2.00000
     15     -10.9313      2.00000
     16     -10.9209      2.00000
     17     -10.9203      2.00000
     18      -7.4397      2.00000
     19       0.4777      2.00000
     20       1.2875      2.00000
     21       1.3280      1.99999
     22       2.8608      0.00000
     23       4.1221      0.00000
     24       4.3227      0.00000
     25       4.4233      0.00000

 k-point     8 :       0.3750    0.1250    0.0000
  band No.  band energies     occupation 
      1     -29.4632      2.00000
      2     -29.4583      2.00000
      3     -26.8208      2.00000
      4     -19.4615      2.00000
      5     -19.4615      2.00000
      6     -19.4612      2.00000
      7     -19.4557      2.00000
      8     -19.4557      2.00000
      9     -13.0080      2.00000
     10     -13.0055      2.00000
     11     -12.9885      2.00000
     12     -12.9705      2.00000
     13     -12.9559      2.00000
     14     -12.9545      2.00000
     15     -10.9334      2.00000
     16     -10.9200      2.00000
     17     -10.9182      2.00000
     18      -7.4078      2.00000
     19       0.2767      2.00000
     20       1.1578      2.00000
     21       1.2579      2.00000
     22       3.3347      0.00000
     23       4.3545      0.00000
     24       4.4715      0.00000
     25       4.6291      0.00000

 k-point     9 :       0.5000    0.1250    0.0000
  band No.  band energies     occupation 
      1     -29.4614      2.00000
      2     -29.4600      2.00000
      3     -26.8209      2.00000
      4     -19.4614      2.00000
      5     -19.4614      2.00000
      6     -19.4611      2.00000
      7     -19.4557      2.00000
      8     -19.4557      2.00000
      9     -13.0069      2.00000
     10     -12.9985      2.00000
     11     -12.9940      2.00000
     12     -12.9673      2.00000
     13     -12.9623      2.00000
     14     -12.9596      2.00000
     15     -10.9335      2.00000
     16     -10.9197      2.00000
     17     -10.9172      2.00000
     18      -7.3889      2.00000
     19       0.1909      2.00000
     20       1.0815      2.00000
     21       1.2054      2.00000
     22       3.6040      0.00000
     23       4.2181      0.00000
     24       4.8374      0.00000
     25       4.8624      0.00000

 k-point    10 :      -0.3750    0.1250    0.0000
  band No.  band energies     occupation 
      1     -29.4620      2.00000
      2     -29.4595      2.00000
      3     -26.8209      2.00000
      4     -19.4615      2.00000
      5     -19.4614      2.00000
      6     -19.4611      2.00000
      7     -19.4557      2.00000
      8     -19.4557      2.00000
      9     -13.0122      2.00000
     10     -12.9879      2.00000
     11     -12.9865      2.00000
     12     -12.9778      2.00000
     13     -12.9719      2.00000
     14     -12.9510      2.00000
     15     -10.9329      2.00000
     16     -10.9199      2.00000
     17     -10.9180      2.00000
     18      -7.3928      2.00000
     19       0.2103      2.00000
     20       1.0988      2.00000
     21       1.1939      2.00000
     22       3.5876      0.00000
     23       4.2409      0.00000
     24       4.8183      0.00000
     25       5.0226      0.00000

 k-point    11 :      -0.2500    0.1250    0.0000
  band No.  band energies     occupation 
      1     -29.4638      2.00000
      2     -29.4578      2.00000
      3     -26.8208      2.00000
      4     -19.4615      2.00000
      5     -19.4615      2.00000
      6     -19.4613      2.00000
      7     -19.4557      2.00000
      8     -19.4557      2.00000
      9     -13.0137      2.00000
     10     -12.9919      2.00000
     11     -12.9830      2.00000
     12     -12.9747      2.00000
     13     -12.9702      2.00000
     14     -12.9464      2.00000
     15     -10.9316      2.00000
     16     -10.9204      2.00000
     17     -10.9200      2.00000
     18      -7.4174      2.00000
     19       0.3363      2.00000
     20       1.2021      2.00000
     21       1.2283      2.00000
     22       3.2699      0.00000
     23       4.3684      0.00000
     24       4.4552      0.00000
     25       4.6905      0.00000

 k-point    12 :      -0.1250    0.1250    0.0000
  band No.  band energies     occupation 
      1     -29.4651      2.00000
      2     -29.4566      2.00000
      3     -26.8206      2.00000
      4     -19.4616      2.00000
      5     -19.4616      2.00000
      6     -19.4615      2.00000
      7     -19.4557      2.00000
      8     -19.4557      2.00000
      9     -13.0095      2.00000
     10     -12.9981      2.00000
     11     -12.9924      2.00000
     12     -12.9632      2.00000
     13     -12.9601      2.00000
     14     -12.9475      2.00000
     15     -10.9289      2.00000
     16     -10.9222      2.00000
     17     -10.9215      2.00000
     18      -7.4499      2.00000
     19       0.5786      2.00000
     20       1.2956      2.00000
     21       1.3237      1.99999
     22       2.7059      0.00000
     23       4.2412      0.00000
     24       4.3371      0.00000
     25       4.3621      0.00000

 k-point    13 :       0.2500    0.2500    0.0000
  band No.  band energies     occupation 
      1     -29.4643      2.00000
      2     -29.4573      2.00000
      3     -26.8207      2.00000
      4     -19.4615      2.00000
      5     -19.4615      2.00000
      6     -19.4614      2.00000
      7     -19.4557      2.00000
      8     -19.4556      2.00000
      9     -13.0160      2.00000
     10     -13.0160      2.00000
     11     -12.9913      2.00000
     12     -12.9662      2.00000
     13     -12.9442      2.00000
     14     -12.9442      2.00000
     15     -10.9355      2.00000
     16     -10.9184      2.00000
     17     -10.9184      2.00000
     18      -7.4264      2.00000
     19       0.3828      2.00000
     20       1.3295      1.99999
     21       1.3295      1.99999
     22       2.9934      0.00000
     23       3.7371      0.00000
     24       4.4334      0.00000
     25       4.4628      0.00000

 k-point    14 :       0.3750    0.2500    0.0000
  band No.  band energies     occupation 
      1     -29.4633      2.00000
      2     -29.4582      2.00000
      3     -26.8209      2.00000
      4     -19.4614      2.00000
      5     -19.4614      2.00000
      6     -19.4613      2.00000
      7     -19.4557      2.00000
      8     -19.4556      2.00000
      9     -13.0196      2.00000
     10     -13.0184      2.00000
     11     -13.0047      2.00000
     12     -12.9534      2.00000
     13     -12.9448      2.00000
     14     -12.9439      2.00000
     15     -10.9373      2.00000
     16     -10.9174      2.00000
     17     -10.9163      2.00000
     18      -7.4049      2.00000
     19       0.3209      2.00000
     20       1.1989      2.00000
     21       1.2894      2.00000
     22       3.2619      0.00000
     23       3.6752      0.00000
     24       4.4579      0.00000
     25       4.7020      0.00000

 k-point    15 :       0.5000    0.2500    0.0000
  band No.  band energies     occupation 
      1     -29.4619      2.00000
      2     -29.4594      2.00000
      3     -26.8210      2.00000
      4     -19.4614      2.00000
      5     -19.4613      2.00000
      6     -19.4612      2.00000
      7     -19.4557      2.00000
      8     -19.4556      2.00000
      9     -13.0242      2.00000
     10     -13.0144      2.00000
     11     -13.0065      2.00000
     12     -12.9533      2.00000
     13     -12.9486      2.00000
     14     -12.9434      2.00000
     15     -10.9347      2.00000
     16     -10.9195      2.00000
     17     -10.9154      2.00000
     18      -7.3882      2.00000
     19       0.3564      2.00000
     20       0.9563      2.00000
     21       1.2370      2.00000
     22       3.4299      0.00000
     23       3.9826      0.00000
     24       4.5073      0.00000
     25       4.9369      0.00000

 k-point    16 :      -0.3750    0.2500    0.0000
  band No.  band energies     occupation 
      1     -29.4610      2.00000
      2     -29.4604      2.00000
      3     -26.8210      2.00000
      4     -19.4614      2.00000
      5     -19.4613      2.00000
      6     -19.4611      2.00000
      7     -19.4557      2.00000
      8     -19.4557      2.00000
      9     -13.0278      2.00000
     10     -13.0045      2.00000
     11     -12.9969      2.00000
     12     -12.9667      2.00000
     13     -12.9575      2.00000
     14     -12.9380      2.00000
     15     -10.9296      2.00000
     16     -10.9236      2.00000
     17     -10.9161      2.00000
     18      -7.3849      2.00000
     19       0.4009      2.00000
     20       0.8286      2.00000
     21       1.2003      2.00000
     22       3.6656      0.00000
     23       4.0616      0.00000
     24       4.8894      0.00000
     25       4.9327      0.00000

 k-point    17 :      -0.2500    0.2500    0.0000
  band No.  band energies     occupation 
      1     -29.4625      2.00000
      2     -29.4589      2.00000
      3     -26.8209      2.00000
      4     -19.4615      2.00000
      5     -19.4613      2.00000
      6     -19.4612      2.00000
      7     -19.4557      2.00000
      8     -19.4557      2.00000
      9     -13.0241      2.00000
     10     -12.9904      2.00000
     11     -12.9836      2.00000
     12     -12.9808      2.00000
     13     -12.9694      2.00000
     14     -12.9386      2.00000
     15     -10.9298      2.00000
     16     -10.9228      2.00000
     17     -10.9180      2.00000
     18      -7.3965      2.00000
     19       0.3419      2.00000
     20       0.9784      2.00000
     21       1.1961      2.00000
     22       3.7322      0.00000
     23       4.1274      0.00000
     24       4.5474      0.00000
[...]
     11     -13.0494      2.00000
     12     -12.9728      2.00000
     13     -12.9712      2.00000
     14     -12.9651      2.00000
     15     -10.9687      2.00000
     16     -10.9441      2.00000
     17     -10.9427      2.00000
     18      -7.4108      2.00000
     19       0.3680      2.00000
     20       1.0875      2.00000
     21       1.2414      2.00000
     22       3.0124      0.00000
     23       3.3710      0.00000
     24       4.8006      0.00000
     25       5.1895      0.00000

 k-point    20 :      -0.3750    0.3750    0.0000
  band No.  band energies     occupation 
      1     -29.4930      2.00000
      2     -29.4917      2.00000
      3     -26.8504      2.00000
      4     -19.4894      2.00000
      5     -19.4893      2.00000
      6     -19.4893      2.00000
      7     -19.4839      2.00000
      8     -19.4838      2.00000
      9     -13.0643      2.00000
     10     -13.0476      2.00000
     11     -13.0398      2.00000
     12     -12.9832      2.00000
     13     -12.9776      2.00000
     14     -12.9638      2.00000
     15     -10.9632      2.00000
     16     -10.9485      2.00000
     17     -10.9434      2.00000
     18      -7.4066      2.00000
     19       0.5239      2.00000
     20       0.7361      2.00000
     21       1.2062      2.00000
     22       3.2127      0.00000
     23       3.8380      0.00000
     24       4.8469      0.00000
     25       5.1169      0.00000

 k-point    21 :       0.5000    0.5000    0.0000
  band No.  band energies     occupation 
      1     -29.4940      2.00000
      2     -29.4907      2.00000
      3     -26.8504      2.00000
      4     -19.4894      2.00000
      5     -19.4894      2.00000
      6     -19.4892      2.00000
      7     -19.4839      2.00000
      8     -19.4838      2.00000
      9     -13.0598      2.00000
     10     -13.0589      2.00000
     11     -13.0589      2.00000
     12     -12.9682      2.00000
     13     -12.9682      2.00000
     14     -12.9618      2.00000
     15     -10.9713      2.00000
     16     -10.9420      2.00000
     17     -10.9420      2.00000
     18      -7.4102      2.00000
     19       0.3471      2.00000
     20       1.2520      2.00000
     21       1.2520      2.00000
     22       2.8213      0.00000
     23       3.1185      0.00000
     24       4.9405      0.00000
     25       5.5441      0.00000

 k-point    22 :       0.3750    0.2500    0.1250
  band No.  band energies     occupation 
      1     -29.4954      2.00000
      2     -29.4896      2.00000
      3     -26.8501      2.00000
      4     -19.4896      2.00000
      5     -19.4895      2.00000
      6     -19.4894      2.00000
      7     -19.4839      2.00000
      8     -19.4838      2.00000
      9     -13.0481      2.00000
     10     -13.0346      2.00000
     11     -13.0203      2.00000
     12     -12.9993      2.00000
     13     -12.9880      2.00000
     14     -12.9739      2.00000
     15     -10.9620      2.00000
     16     -10.9486      2.00000
     17     -10.9477      2.00000
     18      -7.4394      2.00000
     19       0.3322      2.00000
     20       1.1881      2.00000
     21       1.2236      2.00000
     22       3.2427      0.00000
     23       3.9612      0.00000
     24       4.3431      0.00000
     25       4.5963      0.00000

 k-point    23 :       0.5000    0.2500    0.1250
  band No.  band energies     occupation 
      1     -29.4940      2.00000
      2     -29.4908      2.00000
      3     -26.8502      2.00000
      4     -19.4895      2.00000
      5     -19.4894      2.00000
      6     -19.4893      2.00000
      7     -19.4839      2.00000
      8     -19.4838      2.00000
      9     -13.0529      2.00000
     10     -13.0327      2.00000
     11     -13.0257      2.00000
     12     -12.9992      2.00000
     13     -12.9877      2.00000
     14     -12.9730      2.00000
     15     -10.9611      2.00000
     16     -10.9500      2.00000
     17     -10.9458      2.00000
     18      -7.4177      2.00000
     19       0.3003      2.00000
     20       0.9981      2.00000
     21       1.1746      2.00000
     22       3.5787      0.00000
     23       4.0921      0.00000
     24       4.3187      0.00000
     25       4.8606      0.00000

 k-point    24 :      -0.3750    0.2500    0.1250
  band No.  band energies     occupation 
      1     -29.4924      2.00000
      2     -29.4924      2.00000
      3     -26.8503      2.00000
      4     -19.4895      2.00000
      5     -19.4894      2.00000
      6     -19.4892      2.00000
      7     -19.4839      2.00000
      8     -19.4838      2.00000
      9     -13.0538      2.00000
     10     -13.0378      2.00000
     11     -13.0156      2.00000
     12     -13.0104      2.00000
     13     -12.9792      2.00000
     14     -12.9773      2.00000
     15     -10.9595      2.00000
     16     -10.9516      2.00000
     17     -10.9449      2.00000
     18      -7.4090      2.00000
     19       0.3102      2.00000
     20       0.9017      2.00000
     21       1.1572      2.00000
     22       3.7407      0.00000
     23       3.9076      0.00000
     24       4.7604      0.00000
     25       4.8344      0.00000

 k-point    25 :       0.5000    0.3750    0.1250
  band No.  band energies     occupation 
      1     -29.4941      2.00000
      2     -29.4907      2.00000
      3     -26.8503      2.00000
      4     -19.4894      2.00000
      5     -19.4894      2.00000
      6     -19.4893      2.00000
      7     -19.4839      2.00000
      8     -19.4838      2.00000
      9     -13.0601      2.00000
     10     -13.0440      2.00000
     11     -13.0426      2.00000
     12     -12.9836      2.00000
     13     -12.9736      2.00000
     14     -12.9691      2.00000
     15     -10.9657      2.00000
     16     -10.9468      2.00000
     17     -10.9438      2.00000
     18      -7.4151      2.00000
     19       0.3471      2.00000
     20       1.0847      2.00000
     21       1.1635      2.00000
     22       3.2889      0.00000
     23       3.6231      0.00000
     24       4.5033      0.00000
     25       4.9430      0.00000

 k-point    26 :      -0.3750    0.3750    0.1250
  band No.  band energies     occupation 
      1     -29.4930      2.00000
      2     -29.4917      2.00000
      3     -26.8504      2.00000
      4     -19.4894      2.00000
      5     -19.4893      2.00000
      6     -19.4893      2.00000
      7     -19.4839      2.00000
      8     -19.4838      2.00000
      9     -13.0662      2.00000
     10     -13.0458      2.00000
     11     -13.0304      2.00000
     12     -12.9967      2.00000
     13     -12.9700      2.00000
     14     -12.9669      2.00000
     15     -10.9613      2.00000
     16     -10.9508      2.00000
     17     -10.9431      2.00000
     18      -7.4070      2.00000
     19       0.4913      2.00000
     20       0.8126      2.00000
     21       1.1160      2.00000
     22       3.3460      0.00000
     23       3.9656      0.00000
     24       4.6189      0.00000
     25       4.9521      0.00000

 k-point    27 :      -0.2500    0.3750    0.1250
  band No.  band energies     occupation 
      1     -29.4929      2.00000
      2     -29.4919      2.00000
      3     -26.8503      2.00000
      4     -19.4894      2.00000
      5     -19.4893      2.00000
      6     -19.4893      2.00000
      7     -19.4839      2.00000
      8     -19.4838      2.00000
      9     -13.0637      2.00000
     10     -13.0415      2.00000
     11     -13.0148      2.00000
     12     -13.0121      2.00000
     13     -12.9767      2.00000
     14     -12.9665      2.00000
     15     -10.9566      2.00000
     16     -10.9548      2.00000
     17     -10.9440      2.00000
     18      -7.4080      2.00000
     19       0.4800      2.00000
     20       0.7643      2.00000
     21       1.1242      2.00000
     22       3.5215      0.00000
     23       4.2194      0.00000
     24       4.4134      0.00000
     25       4.9234      0.00000

 k-point    28 :      -0.3750    0.5000    0.1250
  band No.  band energies     occupation 
      1     -29.4935      2.00000
      2     -29.4912      2.00000
      3     -26.8504      2.00000
      4     -19.4894      2.00000
      5     -19.4893      2.00000
      6     -19.4892      2.00000
      7     -19.4839      2.00000
      8     -19.4838      2.00000
      9     -13.0681      2.00000
     10     -13.0506      2.00000
     11     -13.0459      2.00000
     12     -12.9818      2.00000
     13     -12.9673      2.00000
     14     -12.9627      2.00000
     15     -10.9668      2.00000
     16     -10.9461      2.00000
     17     -10.9421      2.00000
     18      -7.4076      2.00000
     19       0.4376      2.00000
     20       1.0436      2.00000
     21       1.1062      2.00000
     22       3.0791      0.00000
     23       3.4988      0.00000
     24       4.9127      0.00000
     25       5.1685      0.00000

 k-point    29 :      -0.2500    0.5000    0.2500
  band No.  band energies     occupation 
      1     -29.4924      2.00000
      2     -29.4923      2.00000
      3     -26.8504      2.00000
      4     -19.4894      2.00000
      5     -19.4893      2.00000
      6     -19.4893      2.00000
      7     -19.4839      2.00000
      8     -19.4838      2.00000
      9     -13.0718      2.00000
     10     -13.0471      2.00000
     11     -13.0141      2.00000
     12     -13.0141      2.00000
     13     -12.9656      2.00000
     14     -12.9645      2.00000
     15     -10.9562      2.00000
     16     -10.9562      2.00000
     17     -10.9422      2.00000
     18      -7.4051      2.00000
     19       0.6930      2.00000
     20       0.6930      2.00000
     21       0.9875      2.00000
     22       3.3271      0.00000
     23       4.3311      0.00000
     24       4.3311      0.00000
     25       4.8658      0.00000


--------------------------------------------------------------------------------------------------------


 soft charge-density along one line, spin component           1
         0         1         2         3         4         5         6         7         8         9
 total charge-density along one line
 
 pseudopotential strength for first ion, spin component:           1
-19.730  -0.000   0.000  -0.000  -0.000   5.246   0.000  -0.000
 -0.000 -19.730  -0.000  -0.000   0.000   0.000   5.246   0.000
  0.000  -0.000 -19.729  -0.000  -0.000  -0.000   0.000   5.245
 -0.000  -0.000  -0.000 -19.730  -0.000   0.000   0.000   0.000
 -0.000   0.000  -0.000  -0.000 -19.729   0.000  -0.000   0.000
  5.246   0.000  -0.000   0.000   0.000   5.177  -0.000   0.000
  0.000   5.246   0.000   0.000  -0.000  -0.000   5.177  -0.000
 -0.000   0.000   5.245   0.000   0.000   0.000  -0.000   5.177
  0.000   0.000   0.000   5.246   0.000  -0.000  -0.000  -0.000
  0.000  -0.000   0.000   0.000   5.245   0.000   0.000  -0.000
  0.000   0.000  -0.000   0.000  -0.000   0.000   0.000  -0.000
  0.000   0.000  -0.000   0.000  -0.000  -0.000  -0.000   0.000
 -0.000  -0.000   0.000  -0.000   0.000  -0.000  -0.000   0.000
 -0.000  -0.000  -0.000  -0.000  -0.000  -0.000  -0.000  -0.000
 -0.000  -0.000   0.000  -0.000  -0.000  -0.000  -0.000   0.000
 -0.000  -0.000   0.000  -0.000   0.000  -0.000  -0.000   0.000
 -0.000  -0.000  -0.000  -0.000  -0.000  -0.000  -0.000  -0.000
 -0.000  -0.000   0.000  -0.000  -0.000  -0.000  -0.000   0.000
 total augmentation occupancy for first ion, spin component:           1
  1.999  -0.000  -0.000  -0.000  -0.000   0.003  -0.000   0.000  -0.000  -0.000   0.000   0.000  -0.000  -0.000  -0.000   0.000
 -0.000   1.999  -0.000   0.000   0.000  -0.000   0.003  -0.000   0.000   0.000   0.000  -0.000   0.000   0.000  -0.000  -0.000
  0.000  -0.000   1.999  -0.000   0.000   0.000  -0.000   0.002  -0.000   0.000   0.000   0.000  -0.000   0.000   0.000   0.000
 -0.000   0.000  -0.000   1.999  -0.000  -0.000   0.000  -0.000   0.003  -0.000   0.000  -0.000  -0.000   0.000   0.000   0.000
  0.000   0.000   0.000  -0.000   1.999  -0.000   0.000   0.000  -0.000   0.002   0.000   0.000   0.000  -0.000   0.000  -0.000
  0.003  -0.000  -0.000  -0.000   0.000   0.000  -0.000   0.000   0.000   0.000  -0.000   0.000  -0.000   0.000   0.000  -0.000
 -0.000   0.003  -0.000   0.000   0.000  -0.000   0.000   0.000   0.000   0.000  -0.000   0.000   0.000  -0.000   0.000   0.000
  0.000  -0.000   0.002  -0.000   0.000   0.000  -0.000   0.000   0.000  -0.000   0.000  -0.000  -0.000  -0.000   0.000  -0.000
 -0.000   0.000  -0.000   0.003  -0.000   0.000  -0.000  -0.000   0.000   0.000  -0.000   0.000  -0.000  -0.000   0.000  -0.000
  0.000   0.000   0.000  -0.000   0.002   0.000   0.000   0.000   0.000   0.000   0.000   0.000   0.000   0.000  -0.000   0.000
 -0.000  -0.000   0.000  -0.000   0.000   0.000   0.000   0.000   0.000   0.000   1.926   0.022   0.000  -0.000   0.000   0.000
  0.000   0.000   0.000   0.000   0.000   0.000   0.000  -0.000   0.000   0.000   0.022   0.001  -0.000   0.000   0.000   0.000
 -0.000   0.000   0.000  -0.000   0.000   0.000   0.000   0.000   0.000  -0.000   0.000   0.000   1.409   0.000   0.000  -0.065
 -0.000   0.000   0.000   0.000  -0.000  -0.000  -0.000  -0.000  -0.000   0.000   0.000   0.000   0.000   1.409   0.000  -0.000
  0.000  -0.000   0.000   0.000   0.000   0.000   0.000  -0.000   0.000  -0.000   0.000  -0.000   0.000   0.000   1.409  -0.000
 -0.000   0.000   0.000  -0.000  -0.000  -0.000   0.000  -0.000  -0.000   0.000   0.000  -0.000  -0.065   0.000   0.000   0.003
 -0.000   0.000   0.000  -0.000   0.000  -0.000  -0.000   0.000  -0.000   0.000   0.000   0.000   0.000  -0.065   0.000   0.000
  0.000   0.000   0.000  -0.000  -0.000  -0.000   0.000   0.000   0.000  -0.000   0.000   0.000   0.000   0.000  -0.065   0.000


------------------------ aborting loop because EDIFF is reached ----------------------------------------


    CHARGE:  cpu time    0.0580: real time    0.0580
    FORLOC:  cpu time    0.0079: real time    0.0079
    FORNL :  cpu time    0.0771: real time    0.0771
    STRESS:  cpu time    0.2655: real time    0.2656
    FORCOR:  cpu time    0.0906: real time    0.0906
    FORHAR:  cpu time    0.0240: real time    0.0240
    MIXING:  cpu time    0.0063: real time    0.0063
    OFIELD:  cpu time    0.0000: real time    0.0000

  FORCE on cell =-STRESS in cart. coord.  units (eV):
  Direction    XX          YY          ZZ          XY          YZ          ZX
  --------------------------------------------------------------------------------------
  Alpha Z   138.15409   138.15409   138.15409
  Ewald    -900.80098  -900.80098  -900.80098     0.00010     0.00010     0.00010
  Hartree   402.25908   402.25908   402.25908     0.00002     0.00002     0.00002
  E(xc)    -179.11559  -179.11559  -179.11559     0.00000     0.00000     0.00000
  Local     -66.11222   -66.11222   -66.11222    -0.00013    -0.00013    -0.00013
  n-local   -51.28614   -51.49322   -53.08167     1.35602    -1.11570     0.67055
  augment   150.22128   150.22128   150.22128     0.00001     0.00001     0.00001
  Kinetic   508.26462   508.45619   505.31369     2.29881    -1.86441     1.24940
  Fock        0.00000     0.00000     0.00000     0.00000     0.00000     0.00000
  -------------------------------------------------------------------------------------
  Total      -0.00318    -0.00318    -0.00318    -0.00000     0.00000     0.00000
  in kB      -0.02971    -0.02971    -0.02971    -0.00000     0.00000     0.00000
  external pressure =       -0.03 kB  Pullay stress =        0.00 kB


 VOLUME and BASIS-vectors are now :
 -----------------------------------------------------------------------------
  energy-cutoff  :      520.00
  volume of cell :      171.36
      direct lattice vectors                 reciprocal lattice vectors
    -0.000000000  4.408485463  4.408485463    -0.113417636  0.113417636  0.113417636
     4.408485463  0.000000000  4.408485463     0.113417636 -0.113417636  0.113417636
     4.408485463  4.408485463 -0.000000000     0.113417636  0.113417636 -0.113417636

  length of vectors
     6.234539931  6.234539931  6.234539931     0.196445108  0.196445108  0.196445108


 FORCES acting on ions
    electron-ion (+dipol)            ewald-force                    non-local-force                 convergence-correction
 -----------------------------------------------------------------------------------------------
   0.230E-03 0.230E-03 0.213E-03   -.476E-04 -.476E-04 -.476E-04   0.900E-21 -.582E-21 0.318E-21   0.256E-08 0.256E-08 0.292E-08
   -.179E-03 -.179E-03 -.190E-03   -.952E-04 -.952E-04 -.952E-04   0.121E-16 0.694E-17 -.110E-17   -.786E-08 -.786E-08 -.848E-08
   0.515E-03 0.515E-03 0.504E-03   0.381E-04 0.381E-04 0.381E-04   -.867E-17 -.694E-17 -.324E-17   0.178E-07 0.178E-07 0.172E-07
   0.761E-03 0.761E-03 0.752E-03   0.105E-03 0.105E-03 0.105E-03   0.000E+00 0.424E-21 0.296E-20   0.147E-07 0.147E-07 0.139E-07
 -----------------------------------------------------------------------------------------------
   0.133E-02 0.133E-02 0.128E-02   0.858E-15 -.580E-16 0.774E-16   0.347E-17 -.159E-21 -.433E-17   0.272E-07 0.272E-07 0.256E-07
 
 
 POSITION                                       TOTAL-FORCE (eV/Angst)
 -----------------------------------------------------------------------------------
      2.20424      2.20424      2.20424        -0.000000      0.000000      0.000000
      0.00000      0.00000      0.00000         0.000000      0.000000      0.000000
      4.40848      4.40848      4.40848        -0.000000     -0.000000     -0.000000
      6.61273      6.61273      6.61273         0.000000     -0.000000     -0.000000
 -----------------------------------------------------------------------------------
    total drift:                                0.001328      0.001328      0.001278


--------------------------------------------------------------------------------------------------------



  FREE ENERGIE OF THE ION-ELECTRON SYSTEM (eV)
  ---------------------------------------------------
  free  energy   TOTEN  =        -8.36387815 eV

  energy  without entropy=       -8.36383803  energy(sigma->0) =       -8.36385809
 
 d Force = 0.0000000E+00[ 0.000E+00, 0.000E+00]  d Energy = 0.2821474E-04-0.282E-04
 d Force = 0.0000000E+00[ 0.000E+00, 0.000E+00]  d Ewald  =-0.1401422E+01 0.140E+01


--------------------------------------------------------------------------------------------------------


    POTLOK:  cpu time    0.0912: real time    0.0912


--------------------------------------------------------------------------------------------------------




--------------------------------------------------------------------------------------------------------


  
 reached required accuracy - stopping structural energy minimisation
     LOOP+:  cpu time    3.8227: real time    3.8354
    4ORBIT:  cpu time    0.0000: real time    0.0000

 total amount of memory used by VASP MPI-rank0    59997. kBytes
=======================================================================

   base      :      30000. kBytes
   nonl-proj :       8260. kBytes
   fftplans  :       4867. kBytes
   grid      :       9037. kBytes
   one-center:         15. kBytes
   wavefun   :       7818. kBytes
 
  
  
 General timing and accounting informations for this job:
 ========================================================
  
                  Total CPU time used (sec):       25.057
                            User time (sec):       24.486
                          System time (sec):        0.571
                         Elapsed time (sec):       25.190
  
                   Maximum memory used (kb):      121016.
                   Average memory used (kb):           0.
  
                          Minor page faults:        48034
                          Major page faults:            0
                 Voluntary context switches:          494
