 running on   28 total cores
 distrk:  each k-point on    7 cores,    4 groups
 distr:  one band on    7 cores,    1 groups
 using from now: INCAR     
 vasp.5.4.4.18Apr17-6-g9f103f2a35 (build Jun 23 2019 17:35:09) complex          
  
 POSCAR found type information on POSCAR  Bi K  Rb
 POSCAR found :  3 types and       4 ions
 scaLAPACK will be used

 ----------------------------------------------------------------------------- 
|                                                                             |
|           W    W    AA    RRRRR   N    N  II  N    N   GGGG   !!!           |
|           W    W   A  A   R    R  NN   N  II  NN   N  G    G  !!!           |
|           W    W  A    A  R    R  N N  N  II  N N  N  G       !!!           |
|           W WW W  AAAAAA  RRRRR   N  N N  II  N  N N  G  GGG   !            |
|           WW  WW  A    A  R   R   N   NN  II  N   NN  G    G                |
|           W    W  A    A  R    R  N    N  II  N    N   GGGG   !!!           |
|                                                                             |
|      You have enabled k-point parallelism (KPAR>1).                         |
|      This developmental code was originally  written by Paul Kent at ORNL,  |
|      and carefully double checked in Vienna.                                |
|      GW as well as linear response parallelism added by Martijn Marsman     |
|      and Georg Kresse.                                                      |
|      Carefully verify results versus KPAR=1.                                |
|      Report problems to Paul Kent and Vienna.                               |
|                                                                             |
 ----------------------------------------------------------------------------- 

 LDA part: xc-table for Pade appr. of Perdew
 POSCAR, INCAR and KPOINTS ok, starting setup
 FFT: planning ...
 WAVECAR not read
 entering main loop
       N       E                     dE             d eps       ncg     rms          rms(c)
DAV:   1     0.390299128644E+03    0.39030E+03   -0.20065E+04  1450   0.157E+03
DAV:   2     0.235057517566E+02   -0.36679E+03   -0.36257E+03  1640   0.423E+02
DAV:   3    -0.775236106945E+01   -0.31258E+02   -0.31200E+02  2198   0.132E+02
DAV:   4    -0.915435773019E+01   -0.14020E+01   -0.14006E+01  2282   0.232E+01
DAV:   5    -0.919370231195E+01   -0.39345E-01   -0.39342E-01  2203   0.326E+00    0.489E+00
DAV:   6    -0.848466557960E+01    0.70904E+00   -0.17325E+00  1622   0.356E+00    0.383E+00
DAV:   7    -0.835760940670E+01    0.12706E+00   -0.86254E-01  2157   0.293E+00    0.210E+00
DAV:   8    -0.836520210550E+01   -0.75927E-02   -0.11948E-01  1839   0.214E+00    0.251E-01
DAV:   9    -0.836365188818E+01    0.15502E-02   -0.35682E-02  1760   0.790E-01    0.194E-01
DAV:  10    -0.836358182964E+01    0.70059E-04   -0.50809E-03  2080   0.244E-01    0.552E-02
DAV:  11    -0.836363808853E+01   -0.56259E-04   -0.33152E-04  2217   0.122E-01    0.298E-02
DAV:  12    -0.836360986699E+01    0.28222E-04   -0.15539E-04  1604   0.494E-02    0.629E-03
DAV:  13    -0.836361001491E+01   -0.14792E-06   -0.54937E-06  1390   0.131E-02
   1 F= -.83636100E+01 E0= -.83635979E+01  d E =-.836361E+01
 curvature:   0.00 expect dE= 0.000E+00 dE for cont linesearch  0.000E+00
 trial: gam= 0.00000 g(F)=  0.112E-39 g(S)=  0.299E-03 ort = 0.000E+00 (trialstep = 0.100E+01)
 search vector abs. value=  0.299E-03
 bond charge predicted
       N       E                     dE             d eps       ncg     rms          rms(c)
DAV:   1    -0.836770365685E+01   -0.40938E-02   -0.10617E-01  1488   0.328E+00    0.363E-01
DAV:   2    -0.836458372995E+01    0.31199E-02   -0.80737E-03  1840   0.856E-01    0.149E-01
DAV:   3    -0.836379703463E+01    0.78670E-03   -0.23754E-03  1731   0.444E-01    0.954E-02
DAV:   4    -0.836381379444E+01   -0.16760E-04   -0.35513E-04  1884   0.733E-02    0.415E-02
DAV:   5    -0.836381448941E+01   -0.69497E-06   -0.81016E-05  1622   0.581E-02
   2 F= -.83638145E+01 E0= -.83637981E+01  d E =-.204475E-03
 trial-energy change:   -0.000204  1 .order   -0.000165   -0.000299   -0.000032
 step:   1.1184(harm=  1.1184)  dis= 0.00000  next Energy=    -8.363777 (dE=-0.167E-03)
 bond charge predicted
       N       E                     dE             d eps       ncg     rms          rms(c)
DAV:   1    -0.836388184266E+01   -0.68048E-04   -0.15824E-03  1510   0.402E-01    0.412E-02
DAV:   2    -0.836383842313E+01    0.43420E-04   -0.10410E-04  1711   0.100E-01    0.171E-02
DAV:   3    -0.836382733685E+01    0.11086E-04   -0.35257E-05  1265   0.537E-02    0.133E-02
DAV:   4    -0.836382621694E+01    0.11199E-05   -0.39154E-06   773   0.141E-02    0.347E-03
DAV:   5    -0.836382561509E+01    0.60185E-06   -0.26536E-06   747   0.127E-02
   3 F= -.83638256E+01 E0= -.83638091E+01  d E =-.215600E-03
 curvature:  -0.56 expect dE=-0.283E-04 dE for cont linesearch -0.283E-04
 ZBRENT: increasing intervall
 opt :   1.3551  next Energy=    -8.363876 (dE=-0.266E-03)
 bond charge predicted
       N       E                     dE             d eps       ncg     rms          rms(c)
DAV:   1    -0.836406510049E+01   -0.23888E-03   -0.59260E-03  1482   0.778E-01    0.851E-02
DAV:   2    -0.836389480321E+01    0.17030E-03   -0.42963E-04  1738   0.199E-01    0.345E-02
DAV:   3    -0.836385258505E+01    0.42218E-04   -0.13533E-04  1716   0.106E-01    0.224E-02
DAV:   4    -0.836385129715E+01    0.12879E-05   -0.14539E-05  1195   0.180E-02    0.980E-03
DAV:   5    -0.836384993128E+01    0.13659E-05   -0.74802E-06   739   0.195E-02
   4 F= -.83638499E+01 E0= -.83638323E+01  d E =-.239916E-03
 curvature:  -1.00 expect dE=-0.145E-04 dE for cont linesearch -0.145E-04
 ZBRENT: increasing intervall
 opt :   1.8286  next Energy=    -8.363854 (dE=-0.244E-03)
 bond charge predicted
       N       E                     dE             d eps       ncg     rms          rms(c)
DAV:   1    -0.836474046728E+01   -0.88917E-03   -0.23782E-02  1481   0.156E+00    0.170E-01
DAV:   2    -0.836405080211E+01    0.68967E-03   -0.17536E-03  1797   0.400E-01    0.695E-02
DAV:   3    -0.836387870689E+01    0.17210E-03   -0.53767E-04  1717   0.211E-01    0.449E-02
DAV:   4    -0.836388023395E+01   -0.15271E-05   -0.76534E-05  1805   0.355E-02    0.199E-02
DAV:   5    -0.836387814602E+01    0.20879E-05   -0.15963E-05   939   0.279E-02
   5 F= -.83638781E+01 E0= -.83638581E+01  d E =-.268131E-03
 curvature:  -0.28 expect dE=-0.103E-06 dE for cont linesearch -0.103E-06
 trial: gam= 0.00000 g(F)=  0.116E-39 g(S)=  0.365E-06 ort =-0.105E-04 (trialstep = 0.117E+01)
 search vector abs. value=  0.365E-06
 reached required accuracy - stopping structural energy minimisation
