<?xml version="1.0" encoding="ISO-8859-1"?>
<modeling>
 <generator>
  <i name="program" type="string">vasp </i>
  <i name="version" type="string">5.4.4.18Apr17-6-g9f103f2a35  </i>
  <i name="subversion" type="string">(build Jun 23 2019 17:35:09) complex            parallel </i>
  <i name="platform" type="string">LinuxIFC </i>
  <i name="date" type="string">2020 01 14 </i>
  <i name="time" type="string">23:16:47 </i>
 </generator>
 <incar>
  <i type="int" name="ISTART">     0</i>
  <i type="string" name="PREC">acc</i>
  <i type="string" name="ALGO"> Normal</i>
  <i type="int" name="ISPIN">     1</i>
  <i type="int" name="NELMIN">     5</i>
  <i type="int" name="IBRION">     2</i>
  <i name="EDIFF">      0.00001000</i>
  <i name="EDIFFG">     -0.00100000</i>
  <i type="int" name="NSW">   100</i>
  <i type="int" name="ISIF">     3</i>
  <i name="ENCUT">    520.00000000</i>
  <i type="logical" name="LREAL"> F  </i>
  <i type="logical" name="LPLANE"> T  </i>
  <i type="int" name="ISMEAR">     0</i>
  <i name="SIGMA">      0.05000000</i>
  <i type="logical" name="LWAVE"> F  </i>
  <i type="logical" name="LCHARG"> F  </i>
  <v type="int" name="KPOINT_BSE">    -1     0     0     0</v>
  <i type="string" name="GGA"> PE</i>
 </incar>
 <structure name="primitive_cell" >
  <crystal>
   <varray name="basis" >
    <v>       0.00000000       4.39966100       4.39966100 </v>
    <v>       4.39966100       0.00000000       4.39966100 </v>
    <v>       4.39966100       4.39966100       0.00000000 </v>
   </varray>
   <i name="volume">    170.32862479 </i>
   <varray name="rec_basis" >
    <v>      -0.11364512       0.11364512       0.11364512 </v>
    <v>       0.11364512      -0.11364512       0.11364512 </v>
    <v>       0.11364512       0.11364512      -0.11364512 </v>
   </varray>
  </crystal>
  <varray name="positions" >
   <v>       0.24999994       0.24999994       0.24999994 </v>
   <v>       0.00000000       0.00000000       0.00000000 </v>
   <v>       0.49999989       0.49999989       0.49999989 </v>
   <v>      -0.25000017      -0.25000017      -0.25000017 </v>
  </varray>
 </structure>
 <varray name="primitive_index" >
  <v type="int" >        1 </v>
  <v type="int" >        2 </v>
  <v type="int" >        3 </v>
  <v type="int" >        4 </v>
 </varray>
 <kpoints>
  <generation param="Gamma">
   <v type="int" name="divisions">       8        8        8 </v>
   <v name="usershift">      0.00000000       0.00000000       0.00000000 </v>
   <v name="genvec1">      0.12500000       0.00000000       0.00000000 </v>
   <v name="genvec2">      0.00000000       0.12500000       0.00000000 </v>
   <v name="genvec3">      0.00000000       0.00000000       0.12500000 </v>
   <v name="shift">      0.00000000       0.00000000       0.00000000 </v>
  </generation>
  <varray name="kpointlist" >
   <v>       0.00000000       0.00000000       0.00000000 </v>
   <v>       0.12500000       0.00000000       0.00000000 </v>
   <v>       0.25000000       0.00000000       0.00000000 </v>
   <v>       0.37500000       0.00000000       0.00000000 </v>
   <v>       0.50000000       0.00000000       0.00000000 </v>
   <v>       0.12500000       0.12500000       0.00000000 </v>
   <v>       0.25000000       0.12500000       0.00000000 </v>
   <v>       0.37500000       0.12500000       0.00000000 </v>
   <v>       0.50000000       0.12500000       0.00000000 </v>
   <v>      -0.37500000       0.12500000       0.00000000 </v>
   <v>      -0.25000000       0.12500000       0.00000000 </v>
   <v>      -0.12500000       0.12500000       0.00000000 </v>
   <v>       0.25000000       0.25000000       0.00000000 </v>
   <v>       0.37500000       0.25000000       0.00000000 </v>
   <v>       0.50000000       0.25000000       0.00000000 </v>
   <v>      -0.37500000       0.25000000       0.00000000 </v>
   <v>      -0.25000000       0.25000000       0.00000000 </v>
   <v>       0.37500000       0.37500000       0.00000000 </v>
   <v>       0.50000000       0.37500000       0.00000000 </v>
   <v>      -0.37500000       0.37500000       0.00000000 </v>
   <v>       0.50000000       0.50000000       0.00000000 </v>
   <v>       0.37500000       0.25000000       0.12500000 </v>
   <v>       0.50000000       0.25000000       0.12500000 </v>
   <v>      -0.37500000       0.25000000       0.12500000 </v>
   <v>       0.50000000       0.37500000       0.12500000 </v>
   <v>      -0.37500000       0.37500000       0.12500000 </v>
   <v>      -0.25000000       0.37500000       0.12500000 </v>
   <v>      -0.37500000       0.50000000       0.12500000 </v>
   <v>      -0.25000000       0.50000000       0.25000000 </v>
  </varray>
  <varray name="weights" >
   <v>       0.00195312 </v>
   <v>       0.01562500 </v>
   <v>       0.01562500 </v>
   <v>       0.01562500 </v>
   <v>       0.00781250 </v>
   <v>       0.01171875 </v>
   <v>       0.04687500 </v>
   <v>       0.04687500 </v>
   <v>       0.04687500 </v>
   <v>       0.04687500 </v>
   <v>       0.04687500 </v>
   <v>       0.02343750 </v>
   <v>       0.01171875 </v>
   <v>       0.04687500 </v>
   <v>       0.04687500 </v>
   <v>       0.04687500 </v>
   <v>       0.02343750 </v>
   <v>       0.01171875 </v>
   <v>       0.04687500 </v>
   <v>       0.02343750 </v>
   <v>       0.00585938 </v>
   <v>       0.04687500 </v>
   <v>       0.09375000 </v>
   <v>       0.04687500 </v>
   <v>       0.04687500 </v>
   <v>       0.09375000 </v>
   <v>       0.04687500 </v>
   <v>       0.02343750 </v>
   <v>       0.01171875 </v>
  </varray>
 </kpoints>
 <parameters>
  <separator name="general" >
   <i type="string" name="SYSTEM">unknown system</i>
   <i type="logical" name="LCOMPAT"> F  </i>
  </separator>
  <separator name="electronic" >
   <i type="string" name="PREC">acc</i>
   <i name="ENMAX">    520.00000000</i>
   <i name="ENAUG">    442.89900000</i>
   <i name="EDIFF">      0.00001000</i>
   <i type="int" name="IALGO">    38</i>
   <i type="int" name="IWAVPR">    11</i>
   <i type="int" name="NBANDS">    25</i>
   <i name="NELECT">     42.00000000</i>
   <i type="int" name="TURBO">     0</i>
   <i type="int" name="IRESTART">     0</i>
   <i type="int" name="NREBOOT">     0</i>
   <i type="int" name="NMIN">     0</i>
   <i name="EREF">      0.00000000</i>
   <separator name="electronic smearing" >
    <i type="int" name="ISMEAR">     0</i>
    <i name="SIGMA">      0.05000000</i>
    <i name="KSPACING">      0.50000000</i>
    <i type="logical" name="KGAMMA"> T  </i>
   </separator>
   <separator name="electronic projectors" >
    <i type="logical" name="LREAL"> F  </i>
    <v name="ROPT">      0.00000000      0.00000000      0.00000000</v>
    <i type="int" name="LMAXPAW">  -100</i>
    <i type="int" name="LMAXMIX">     2</i>
    <i type="logical" name="NLSPLINE"> F  </i>
   </separator>
   <separator name="electronic startup" >
    <i type="int" name="ISTART">     0</i>
    <i type="int" name="ICHARG">     2</i>
    <i type="int" name="INIWAV">     1</i>
   </separator>
   <separator name="electronic spin" >
    <i type="int" name="ISPIN">     1</i>
    <i type="logical" name="LNONCOLLINEAR"> F  </i>
    <v name="MAGMOM">      1.00000000      1.00000000      1.00000000      1.00000000</v>
    <i name="NUPDOWN">     -1.00000000</i>
    <i type="logical" name="LSORBIT"> F  </i>
    <v name="SAXIS">      0.00000000      0.00000000      1.00000000</v>
    <i type="logical" name="LSPIRAL"> F  </i>
    <v name="QSPIRAL">      0.00000000      0.00000000      0.00000000</v>
    <i type="logical" name="LZEROZ"> F  </i>
   </separator>
   <separator name="electronic exchange-correlation" >
    <i type="logical" name="LASPH"> F  </i>
    <i type="logical" name="LMETAGGA"> F  </i>
   </separator>
   <separator name="electronic convergence" >
    <i type="int" name="NELM">    60</i>
    <i type="int" name="NELMDL">    -5</i>
    <i type="int" name="NELMIN">     5</i>
    <i name="ENINI">    520.00000000</i>
    <separator name="electronic convergence detail" >
     <i type="logical" name="LDIAG"> T  </i>
     <i type="logical" name="LSUBROT"> F  </i>
     <i name="WEIMIN">      0.00100000</i>
     <i name="EBREAK">      0.00000010</i>
     <i name="DEPER">      0.30000000</i>
     <i type="int" name="NRMM">     4</i>
     <i name="TIME">      0.40000000</i>
    </separator>
   </separator>
   <separator name="electronic mixer" >
    <i name="AMIX">      0.40000000</i>
    <i name="BMIX">      1.00000000</i>
    <i name="AMIN">      0.10000000</i>
    <i name="AMIX_MAG">      1.60000000</i>
    <i name="BMIX_MAG">      1.00000000</i>
    <separator name="electronic mixer details" >
     <i type="int" name="IMIX">     4</i>
     <i type="logical" name="MIXFIRST"> F  </i>
     <i type="int" name="MAXMIX">   -45</i>
     <i name="WC">    100.00000000</i>
     <i type="int" name="INIMIX">     1</i>
     <i type="int" name="MIXPRE">     1</i>
     <i type="int" name="MREMOVE">     5</i>
    </separator>
   </separator>
   <separator name="electronic dipolcorrection" >
    <i type="logical" name="LDIPOL"> F  </i>
    <i type="logical" name="LMONO"> F  </i>
    <i type="int" name="IDIPOL">     0</i>
    <i name="EPSILON">      1.00000000</i>
    <v name="DIPOL">   -100.00000000   -100.00000000   -100.00000000</v>
    <i name="EFIELD">      0.00000000</i>
   </separator>
  </separator>
  <separator name="grids" >
   <i type="int" name="NGX">    48</i>
   <i type="int" name="NGY">    48</i>
   <i type="int" name="NGZ">    48</i>
   <i type="int" name="NGXF">    96</i>
   <i type="int" name="NGYF">    96</i>
   <i type="int" name="NGZF">    96</i>
   <i type="logical" name="ADDGRID"> F  </i>
  </separator>
  <separator name="ionic" >
   <i type="int" name="NSW">   100</i>
   <i type="int" name="IBRION">     2</i>
   <i type="int" name="MDALGO">     0</i>
   <i type="int" name="ISIF">     3</i>
   <i name="PSTRESS">      0.00000000</i>
   <i name="EDIFFG">     -0.00100000</i>
   <i type="int" name="NFREE">     1</i>
   <i name="POTIM">      0.50000000</i>
   <i name="SMASS">     -3.00000000</i>
   <i name="SCALEE">      1.00000000</i>
  </separator>
  <separator name="ionic md" >
   <i name="TEBEG">      0.00010000</i>
   <i name="TEEND">      0.00010000</i>
   <i type="int" name="NBLOCK">     1</i>
   <i type="int" name="KBLOCK">   100</i>
   <i type="int" name="NPACO">   256</i>
   <i name="APACO">     16.00000000</i>
  </separator>
  <separator name="symmetry" >
   <i type="int" name="ISYM">     2</i>
   <i name="SYMPREC">      0.00001000</i>
  </separator>
  <separator name="dos" >
   <i type="int" name="LORBIT">     0</i>
   <v name="RWIGS">     -1.00000000     -1.00000000     -1.00000000</v>
   <i type="int" name="NEDOS">   301</i>
   <i name="EMIN">     10.00000000</i>
   <i name="EMAX">    -10.00000000</i>
   <i name="EFERMI">      0.00000000</i>
  </separator>
  <separator name="writing" >
   <i type="int" name="NWRITE">     2</i>
   <i type="logical" name="LWAVE"> F  </i>
   <i type="logical" name="LDOWNSAMPLE"> F  </i>
   <i type="logical" name="LCHARG"> F  </i>
   <i type="logical" name="LPARD"> F  </i>
   <i type="logical" name="LVTOT"> F  </i>
   <i type="logical" name="LVHAR"> F  </i>
   <i type="logical" name="LELF"> F  </i>
   <i type="logical" name="LOPTICS"> F  </i>
   <v name="STM">      0.00000000      0.00000000      0.00000000      0.00000000      0.00000000      0.00000000      0.00000000</v>
  </separator>
  <separator name="performance" >
   <i type="int" name="NPAR">     1</i>
   <i type="int" name="NSIM">     4</i>
   <i type="int" name="NBLK">    -1</i>
   <i type="logical" name="LPLANE"> T  </i>
   <i type="logical" name="LSCALAPACK"> T  </i>
   <i type="logical" name="LSCAAWARE"> F  </i>
   <i type="logical" name="LSCALU"> F  </i>
   <i type="logical" name="LASYNC"> F  </i>
   <i type="logical" name="LORBITALREAL"> F  </i>
  </separator>
  <separator name="miscellaneous" >
   <i type="int" name="IDIOT">     3</i>
   <i type="int" name="ISPECIAL">     0</i>
   <i type="logical" name="LMUSIC"> F  </i>
   <v name="POMASS">    208.98000000     39.09800000     85.46800000</v>
   <v name="DARWINR">      0.00000000      0.00000000      0.00000000</v>
   <v name="DARWINV">      1.00000000      1.00000000      1.00000000</v>
   <i type="logical" name="LCORR"> T  </i>
  </separator>
  <i type="logical" name="GGA_COMPAT"> T  </i>
  <i type="logical" name="LBERRY"> F  </i>
  <i type="int" name="ICORELEVEL">     0</i>
  <i type="logical" name="LDAU"> F  </i>
  <i type="int" name="I_CONSTRAINED_M">     0</i>
  <separator name="electronic exchange-correlation" >
   <i type="string" name="GGA">PE</i>
   <i type="int" name="VOSKOWN">     0</i>
   <i type="logical" name="LHFCALC"> F  </i>
   <i type="string" name="PRECFOCK"></i>
   <i type="logical" name="LSYMGRAD"> F  </i>
   <i type="logical" name="LHFONE"> F  </i>
   <i type="logical" name="LRHFCALC"> F  </i>
   <i type="logical" name="LTHOMAS"> F  </i>
   <i type="logical" name="LMODELHF"> F  </i>
   <i name="ENCUT4O">     -1.00000000</i>
   <i type="int" name="EXXOEP">     0</i>
   <i type="int" name="FOURORBIT">     0</i>
   <i name="AEXX">      0.00000000</i>
   <i name="HFALPHA">      0.00000000</i>
   <i name="MCALPHA">      0.00000000</i>
   <i name="ALDAX">      1.00000000</i>
   <i name="AGGAX">      1.00000000</i>
   <i name="ALDAC">      1.00000000</i>
   <i name="AGGAC">      1.00000000</i>
   <i type="int" name="NKREDX">     1</i>
   <i type="int" name="NKREDY">     1</i>
   <i type="int" name="NKREDZ">     1</i>
   <i type="logical" name="SHIFTRED"> F  </i>
   <i type="logical" name="ODDONLY"> F  </i>
   <i type="logical" name="EVENONLY"> F  </i>
   <i type="int" name="LMAXFOCK">     0</i>
   <i type="int" name="NMAXFOCKAE">     0</i>
   <i type="logical" name="LFOCKAEDFT"> F  </i>
   <i name="HFSCREEN">      0.00000000</i>
   <i name="HFSCREENC">      0.00000000</i>
   <i type="int" name="NBANDSGWLOW">     0</i>
  </separator>
  <separator name="vdW DFT" >
   <i type="logical" name="LUSE_VDW"> F  </i>
   <i name="Zab_VDW">     -0.84910000</i>
   <i name="PARAM1">      0.12340000</i>
   <i name="PARAM2">      1.00000000</i>
   <i name="PARAM3">      0.00000000</i>
  </separator>
  <separator name="model GW" >
   <i type="int" name="MODEL_GW">     0</i>
   <i name="MODEL_EPS0">     25.54929372</i>
   <i name="MODEL_ALPHA">      1.00000000</i>
  </separator>
  <separator name="linear response parameters" >
   <i type="logical" name="LEPSILON"> F  </i>
   <i type="logical" name="LRPA"> F  </i>
   <i type="logical" name="LNABLA"> F  </i>
   <i type="logical" name="LVEL"> F  </i>
   <i type="int" name="KINTER">     0</i>
   <i name="CSHIFT">      0.10000000</i>
   <i name="OMEGAMAX">     -1.00000000</i>
   <i name="DEG_THRESHOLD">      0.00200000</i>
   <i name="RTIME">     -0.10000000</i>
   <i name="WPLASMAI">      0.00000000</i>
   <v name="DFIELD">      0.00000000      0.00000000      0.00000000</v>
   <v name="WPLASMA">      0.00000000      0.00000000      0.00000000      0.00000000      0.00000000      0.00000000      0.00000000      0.00000000      0.00000000</v>
  </separator>
  <separator name="orbital magnetization" >
   <i type="logical" name="NUCIND"> F  </i>
   <v name="MAGPOS">      0.00000000      0.00000000      0.00000000</v>
   <i type="logical" name="LNICSALL"> T  </i>
   <i type="logical" name="ORBITALMAG"> F  </i>
   <i type="logical" name="LMAGBLOCH"> F  </i>
   <i type="logical" name="LCHIMAG"> F  </i>
   <i type="logical" name="LGAUGE"> T  </i>
   <i type="int" name="MAGATOM">     0</i>
   <v name="MAGDIPOL">      0.00000000      0.00000000      0.00000000</v>
   <v name="AVECCONST">      0.00000000      0.00000000      0.00000000</v>
  </separator>
  <separator name="response functions" >
   <i type="logical" name="LADDER"> F  </i>
   <i type="logical" name="LRPAFORCE"> F  </i>
   <i type="logical" name="LFXC"> F  </i>
   <i type="logical" name="LHARTREE"> T  </i>
   <i type="int" name="IBSE">     0</i>
   <v type="int" name="KPOINT">    -1     0     0     0</v>
   <i type="logical" name="LTCTE"> F  </i>
   <i type="logical" name="LTETE"> F  </i>
   <i type="logical" name="LTRIPLET"> F  </i>
   <i type="logical" name="LFXCEPS"> F  </i>
   <i type="logical" name="LFXHEG"> F  </i>
   <i type="int" name="NATURALO">     2</i>
   <i type="logical" name="L2ORDER"> F  </i>
   <i type="logical" name="LMP2LT"> F  </i>
   <i type="logical" name="LUSEW"> F  </i>
   <i name="ENCUTGW">     -2.00000000</i>
   <i name="ENCUTGWSOFT">     -2.00000000</i>
   <i name="ENCUTLF">     -1.00000000</i>
   <i type="int" name="LMAXMP2">    -1</i>
   <i name="SCISSOR">      0.00000000</i>
   <i type="int" name="NOMEGA">     0</i>
   <i type="int" name="NOMEGAR">     0</i>
   <i type="int" name="NBANDSGW">    -1</i>
   <i type="int" name="NBANDSO">    -1</i>
   <i type="int" name="NBANDSV">    -1</i>
   <i type="int" name="NELM">     1</i>
   <i type="int" name="NELMHF">     1</i>
   <i type="int" name="DIM">     3</i>
   <i type="int" name="ANTIRES">     0</i>
   <i name="OMEGAMAX">    -30.00000000</i>
   <i name="OMEGAMIN">    -30.00000000</i>
   <i name="OMEGATL">   -200.00000000</i>
   <i type="int" name="OMEGAGRID">   140</i>
   <i name="CSHIFT">     -0.10000000</i>
   <i type="logical" name="SELFENERGY"> F  </i>
   <i type="logical" name="LSPECTRAL"> F  </i>
   <i type="logical" name="LSPECTRALGW"> F  </i>
   <i type="logical" name="LSINGLES"> F  </i>
   <i type="logical" name="LFERMIGW"> F  </i>
   <i type="logical" name="ODDONLYGW"> F  </i>
   <i type="logical" name="EVENONLYGW"> F  </i>
   <i type="int" name="NKREDLFX">     1</i>
   <i type="int" name="NKREDLFY">     1</i>
   <i type="int" name="NKREDLFZ">     1</i>
   <i type="int" name="MAXMEM">  2800</i>
   <i type="int" name="TELESCOPE">     0</i>
   <i type="int" name="TAUPAR">     1</i>
   <i type="int" name="OMEGAPAR">    -1</i>
   <i name="LAMBDA">      1.00000000</i>
  </separator>
  <separator name="External order field" >
   <i name="OFIELD_KAPPA">      0.00000000</i>
   <v name="OFIELD_K">      0.00000000      0.00000000      0.00000000</v>
   <i name="OFIELD_Q6_NEAR">      0.00000000</i>
   <i name="OFIELD_Q6_FAR">      0.00000000</i>
   <i name="OFIELD_A">      0.00000000</i>
  </separator>
 </parameters>
 <atominfo>
  <atoms>       4 </atoms>
  <types>       3 </types>
  <array name="atoms" >
   <dimension dim="1">ion</dimension>
   <field type="string">element</field>
   <field type="int">atomtype</field>
   <set>
    <rc><c>Bi</c><c>   1</c></rc>
    <rc><c>K </c><c>   2</c></rc>
    <rc><c>K </c><c>   2</c></rc>
    <rc><c>Rb</c><c>   3</c></rc>
   </set>
  </array>
  <array name="atomtypes" >
   <dimension dim="1">type</dimension>
   <field type="int">atomspertype</field>
   <field type="string">element</field>
   <field>mass</field>
   <field>valence</field>
   <field type="string">pseudopotential</field>
   <set>
    <rc><c>   1</c><c>Bi</c><c>    208.98000000</c><c>     15.00000000</c><c>  PAW_PBE Bi_d 06Sep2000                </c></rc>
    <rc><c>   2</c><c>K </c><c>     39.09800000</c><c>      9.00000000</c><c>  PAW_PBE K_sv 06Sep2000                </c></rc>
    <rc><c>   1</c><c>Rb</c><c>     85.46800000</c><c>      9.00000000</c><c>  PAW_PBE Rb_sv 06Sep2000               </c></rc>
   </set>
  </array>
 </atominfo>
 <structure name="initialpos" >
  <crystal>
   <varray name="basis" >
    <v>       0.00000000       4.39966100       4.39966100 </v>
    <v>       4.39966100       0.00000000       4.39966100 </v>
    <v>       4.39966100       4.39966100       0.00000000 </v>
   </varray>
   <i name="volume">    170.32862479 </i>
   <varray name="rec_basis" >
    <v>      -0.11364512       0.11364512       0.11364512 </v>
    <v>       0.11364512      -0.11364512       0.11364512 </v>
    <v>       0.11364512       0.11364512      -0.11364512 </v>
   </varray>
  </crystal>
  <varray name="positions" >
   <v>       0.24999994       0.24999994       0.24999994 </v>
   <v>       0.00000000       0.00000000       0.00000000 </v>
   <v>       0.49999989       0.49999989       0.49999989 </v>
   <v>       0.74999983       0.74999983       0.74999983 </v>
  </varray>
 </structure>
 <calculation>
  <scstep>
   <time name="dav">    0.49    0.49</time>
   <time name="total">    0.58    0.58</time>
   <energy>
    <i name="alphaZ">    138.98705463 </i>
    <i name="ewald">  -2707.82090633 </i>
    <i name="hartreedc">  -1204.25484682 </i>
    <i name="XCdc">    148.25506442 </i>
    <i name="pawpsdc">   3368.52235606 </i>
    <i name="pawaedc">  -3324.32309837 </i>
    <i name="eentropy">     -0.00189609 </i>
    <i name="bandstr">   -200.77850879 </i>
    <i name="atom">   4171.71390993 </i>
    <i name="e_fr_energy">    390.29912864 </i>
    <i name="e_wo_entrp">    390.30102473 </i>
    <i name="e_0_energy">    390.30007669 </i>
   </energy>
  </scstep>
  <scstep>
   <time name="dav">    0.50    0.50</time>
   <time name="total">    0.50    0.50</time>
   <energy>
    <i name="e_fr_energy">     23.50575176 </i>
    <i name="e_wo_entrp">     23.50597746 </i>
    <i name="e_0_energy">     23.50586461 </i>
   </energy>
  </scstep>
  <scstep>
   <time name="dav">    0.64    0.64</time>
   <time name="total">    0.64    0.64</time>
   <energy>
    <i name="e_fr_energy">     -7.75236107 </i>
    <i name="e_wo_entrp">     -7.75236107 </i>
    <i name="e_0_energy">     -7.75236107 </i>
   </energy>
  </scstep>
  <scstep>
   <time name="dav">    0.66    0.66</time>
   <time name="total">    0.66    0.66</time>
   <energy>
    <i name="e_fr_energy">     -9.15435773 </i>
    <i name="e_wo_entrp">     -9.15435773 </i>
    <i name="e_0_energy">     -9.15435773 </i>
   </energy>
  </scstep>
  <scstep>
   <time name="dav">    0.64    0.64</time>
   <time name="total">    0.71    0.71</time>
   <energy>
    <i name="e_fr_energy">     -9.19370231 </i>
    <i name="e_wo_entrp">     -9.19370231 </i>
    <i name="e_0_energy">     -9.19370231 </i>
   </energy>
  </scstep>
  <scstep>
   <time name="dav">    0.51    0.51</time>
   <time name="total">    0.67    0.67</time>
   <energy>
    <i name="e_fr_energy">     -8.48466558 </i>
    <i name="e_wo_entrp">     -8.48466558 </i>
    <i name="e_0_energy">     -8.48466558 </i>
   </energy>
  </scstep>
  <scstep>
   <time name="dav">    0.62    0.62</time>
   <time name="total">    0.77    0.78</time>
   <energy>
    <i name="e_fr_energy">     -8.35760941 </i>
    <i name="e_wo_entrp">     -8.35757789 </i>
    <i name="e_0_energy">     -8.35759365 </i>
   </energy>
  </scstep>
  <scstep>
   <time name="dav">    0.55    0.55</time>
   <time name="total">    0.70    0.70</time>
   <energy>
    <i name="e_fr_energy">     -8.36520211 </i>
    <i name="e_wo_entrp">     -8.36519385 </i>
    <i name="e_0_energy">     -8.36519798 </i>
   </energy>
  </scstep>
  <scstep>
   <time name="dav">    0.53    0.53</time>
   <time name="total">    0.67    0.68</time>
   <energy>
    <i name="e_fr_energy">     -8.36365189 </i>
    <i name="e_wo_entrp">     -8.36360521 </i>
    <i name="e_0_energy">     -8.36362855 </i>
   </energy>
  </scstep>
  <scstep>
   <time name="dav">    0.61    0.61</time>
   <time name="total">    0.76    0.76</time>
   <energy>
    <i name="e_fr_energy">     -8.36358183 </i>
    <i name="e_wo_entrp">     -8.36355928 </i>
    <i name="e_0_energy">     -8.36357056 </i>
   </energy>
  </scstep>
  <scstep>
   <time name="dav">    0.64    0.64</time>
   <time name="total">    0.79    0.79</time>
   <energy>
    <i name="e_fr_energy">     -8.36363809 </i>
    <i name="e_wo_entrp">     -8.36361645 </i>
    <i name="e_0_energy">     -8.36362727 </i>
   </energy>
  </scstep>
  <scstep>
   <time name="dav">    0.47    0.47</time>
   <time name="total">    0.62    0.62</time>
   <energy>
    <i name="e_fr_energy">     -8.36360987 </i>
    <i name="e_wo_entrp">     -8.36358556 </i>
    <i name="e_0_energy">     -8.36359771 </i>
   </energy>
  </scstep>
  <scstep>
   <time name="dav">    0.45    0.45</time>
   <time name="total">    0.54    0.54</time>
   <energy>
    <i name="alphaZ">    138.98705463 </i>
    <i name="ewald">  -2707.82090633 </i>
    <i name="hartreedc">  -1203.40864180 </i>
    <i name="XCdc">    148.10069876 </i>
    <i name="pawpsdc">   3502.54228409 </i>
    <i name="pawaedc">  -3461.62604769 </i>
    <i name="eentropy">     -0.00002430 </i>
    <i name="bandstr">   -596.85193730 </i>
    <i name="atom">   4171.71390993 </i>
    <i name="e_fr_energy">     -8.36361001 </i>
    <i name="e_wo_entrp">     -8.36358572 </i>
    <i name="e_0_energy">     -8.36359787 </i>
   </energy>
  </scstep>
  <structure>
   <crystal>
    <varray name="basis" >
     <v>       0.00000000       4.39966100       4.39966100 </v>
     <v>       4.39966100       0.00000000       4.39966100 </v>
     <v>       4.39966100       4.39966100       0.00000000 </v>
    </varray>
    <i name="volume">    170.32862479 </i>
    <varray name="rec_basis" >
     <v>      -0.11364512       0.11364512       0.11364512 </v>
     <v>       0.11364512      -0.11364512       0.11364512 </v>
     <v>       0.11364512       0.11364512      -0.11364512 </v>
    </varray>
   </crystal>
   <varray name="positions" >
    <v>       0.24999994       0.24999994       0.24999994 </v>
    <v>       0.00000000       0.00000000       0.00000000 </v>
    <v>       0.49999989       0.49999989       0.49999989 </v>
    <v>       0.74999983       0.74999983       0.74999983 </v>
   </varray>
  </structure>
  <varray name="forces" >
   <v>      -0.00000000       0.00000000       0.00000000 </v>
   <v>       0.00000000       0.00000000       0.00000000 </v>
   <v>      -0.00000000      -0.00000000      -0.00000000 </v>
   <v>       0.00000000      -0.00000000       0.00000000 </v>
  </varray>
  <varray name="stress" >
   <v>       0.85545346       0.00000000       0.00000000 </v>
   <v>       0.00000000       0.85545346      -0.00000000 </v>
   <v>      -0.00000000      -0.00000000       0.85545346 </v>
  </varray>
  <energy>
   <i name="e_fr_energy">     -8.36361001 </i>
   <i name="e_wo_entrp">     -8.36359787 </i>
   <i name="e_0_energy">     -0.00002430 </i>
  </energy>
  <time name="totalsc">    9.30    9.32</time>
 </calculation>
 <calculation>
  <scstep>
   <time name="dav">    0.49    0.49</time>
   <time name="total">    0.65    0.65</time>
   <energy>
    <i name="alphaZ">    138.53071494 </i>
    <i name="ewald">  -2704.85410482 </i>
    <i name="hartreedc">  -1202.09681115 </i>
    <i name="XCdc">    147.93270794 </i>
    <i name="pawpsdc">   3502.55095150 </i>
    <i name="pawaedc">  -3461.63758067 </i>
    <i name="eentropy">     -0.00003517 </i>
    <i name="bandstr">   -600.50745616 </i>
    <i name="atom">   4171.71390993 </i>
    <i name="e_fr_energy">     -8.36770366 </i>
    <i name="e_wo_entrp">     -8.36766849 </i>
    <i name="e_0_energy">     -8.36768607 </i>
   </energy>
  </scstep>
  <scstep>
   <time name="dav">    0.57    0.57</time>
   <time name="total">    0.72    0.72</time>
   <energy>
    <i name="e_fr_energy">     -8.36458373 </i>
    <i name="e_wo_entrp">     -8.36454623 </i>
    <i name="e_0_energy">     -8.36456498 </i>
   </energy>
  </scstep>
  <scstep>
   <time name="dav">    0.53    0.53</time>
   <time name="total">    0.68    0.68</time>
   <energy>
    <i name="e_fr_energy">     -8.36379703 </i>
    <i name="e_wo_entrp">     -8.36376360 </i>
    <i name="e_0_energy">     -8.36378032 </i>
   </energy>
  </scstep>
  <scstep>
   <time name="dav">    0.55    0.55</time>
   <time name="total">    0.70    0.70</time>
   <energy>
    <i name="e_fr_energy">     -8.36381379 </i>
    <i name="e_wo_entrp">     -8.36378229 </i>
    <i name="e_0_energy">     -8.36379804 </i>
   </energy>
  </scstep>
  <scstep>
   <time name="dav">    0.48    0.48</time>
   <time name="total">    0.57    0.58</time>
   <energy>
    <i name="alphaZ">    138.53071494 </i>
    <i name="ewald">  -2704.85410482 </i>
    <i name="hartreedc">  -1205.29834705 </i>
    <i name="XCdc">    148.08788156 </i>
    <i name="pawpsdc">   3501.70781199 </i>
    <i name="pawaedc">  -3460.77248502 </i>
    <i name="eentropy">     -0.00003278 </i>
    <i name="bandstr">   -597.47916325 </i>
    <i name="atom">   4171.71390993 </i>
    <i name="e_fr_energy">     -8.36381449 </i>
    <i name="e_wo_entrp">     -8.36378170 </i>
    <i name="e_0_energy">     -8.36379810 </i>
   </energy>
  </scstep>
  <structure>
   <crystal>
    <varray name="basis" >
     <v>      -0.00000000       4.40448674       4.40448674 </v>
     <v>       4.40448674       0.00000000       4.40448674 </v>
     <v>       4.40448674       4.40448674      -0.00000000 </v>
    </varray>
    <i name="volume">    170.88971128 </i>
    <varray name="rec_basis" >
     <v>      -0.11352061       0.11352061       0.11352061 </v>
     <v>       0.11352061      -0.11352061       0.11352061 </v>
     <v>       0.11352061       0.11352061      -0.11352061 </v>
    </varray>
   </crystal>
   <varray name="positions" >
    <v>       0.24999994       0.24999994       0.24999994 </v>
    <v>      -0.00000000       0.00000000       0.00000000 </v>
    <v>       0.49999989       0.49999989       0.49999989 </v>
    <v>       0.74999983       0.74999983       0.74999983 </v>
   </varray>
  </structure>
  <varray name="forces" >
   <v>      -0.00000000       0.00000000       0.00000000 </v>
   <v>      -0.00000000       0.00000000      -0.00000000 </v>
   <v>       0.00000000       0.00000000       0.00000000 </v>
   <v>       0.00000000      -0.00000000      -0.00000000 </v>
  </varray>
  <varray name="stress" >
   <v>       0.09024855       0.00000000       0.00000000 </v>
   <v>       0.00000000       0.09024855      -0.00000000 </v>
   <v>      -0.00000000      -0.00000000       0.09024855 </v>
  </varray>
  <energy>
   <i name="e_fr_energy">     -8.36381449 </i>
   <i name="e_wo_entrp">     -8.36379810 </i>
   <i name="e_0_energy">     -0.00003278 </i>
  </energy>
  <time name="totalsc">    4.02    4.03</time>
 </calculation>
 <calculation>
  <scstep>
   <time name="dav">    0.48    0.48</time>
   <time name="total">    0.63    0.63</time>
   <energy>
    <i name="alphaZ">    138.47682810 </i>
    <i name="ewald">  -2704.50334037 </i>
    <i name="hartreedc">  -1205.10504546 </i>
    <i name="XCdc">    148.06643114 </i>
    <i name="pawpsdc">   3501.49776782 </i>
    <i name="pawaedc">  -3460.56417159 </i>
    <i name="eentropy">     -0.00003362 </i>
    <i name="bandstr">   -597.94622780 </i>
    <i name="atom">   4171.71390993 </i>
    <i name="e_fr_energy">     -8.36388184 </i>
    <i name="e_wo_entrp">     -8.36384822 </i>
    <i name="e_0_energy">     -8.36386503 </i>
   </energy>
  </scstep>
  <scstep>
   <time name="dav">    0.51    0.51</time>
   <time name="total">    0.66    0.66</time>
   <energy>
    <i name="e_fr_energy">     -8.36383842 </i>
    <i name="e_wo_entrp">     -8.36380466 </i>
    <i name="e_0_energy">     -8.36382154 </i>
   </energy>
  </scstep>
  <scstep>
   <time name="dav">    0.42    0.42</time>
   <time name="total">    0.57    0.57</time>
   <energy>
    <i name="e_fr_energy">     -8.36382734 </i>
    <i name="e_wo_entrp">     -8.36379406 </i>
    <i name="e_0_energy">     -8.36381070 </i>
   </energy>
  </scstep>
  <scstep>
   <time name="dav">    0.32    0.32</time>
   <time name="total">    0.46    0.47</time>
   <energy>
    <i name="e_fr_energy">     -8.36382622 </i>
    <i name="e_wo_entrp">     -8.36379317 </i>
    <i name="e_0_energy">     -8.36380969 </i>
   </energy>
  </scstep>
  <scstep>
   <time name="dav">    0.31    0.31</time>
   <time name="total">    0.40    0.40</time>
   <energy>
    <i name="alphaZ">    138.47682810 </i>
    <i name="ewald">  -2704.50334037 </i>
    <i name="hartreedc">  -1205.48902943 </i>
    <i name="XCdc">    148.08512241 </i>
    <i name="pawpsdc">   3501.18230996 </i>
    <i name="pawaedc">  -3460.25161559 </i>
    <i name="eentropy">     -0.00003308 </i>
    <i name="bandstr">   -597.57797754 </i>
    <i name="atom">   4171.71390993 </i>
    <i name="e_fr_energy">     -8.36382562 </i>
    <i name="e_wo_entrp">     -8.36379253 </i>
    <i name="e_0_energy">     -8.36380907 </i>
   </energy>
  </scstep>
  <structure>
   <crystal>
    <varray name="basis" >
     <v>      -0.00000000       4.40505799       4.40505799 </v>
     <v>       4.40505799       0.00000000       4.40505799 </v>
     <v>       4.40505799       4.40505799      -0.00000000 </v>
    </varray>
    <i name="volume">    170.95621126 </i>
    <varray name="rec_basis" >
     <v>      -0.11350588       0.11350588       0.11350588 </v>
     <v>       0.11350588      -0.11350588       0.11350588 </v>
     <v>       0.11350588       0.11350588      -0.11350588 </v>
    </varray>
   </crystal>
   <varray name="positions" >
    <v>       0.24999994       0.24999994       0.24999994 </v>
    <v>      -0.00000000       0.00000000       0.00000000 </v>
    <v>       0.49999989       0.49999989       0.49999989 </v>
    <v>       0.74999983       0.74999983       0.74999983 </v>
   </varray>
  </structure>
  <varray name="forces" >
   <v>       0.00000000      -0.00000000      -0.00000000 </v>
   <v>       0.00000000       0.00000000       0.00000000 </v>
   <v>       0.00000000      -0.00000000      -0.00000000 </v>
   <v>      -0.00000000       0.00000000       0.00000000 </v>
  </varray>
  <varray name="stress" >
   <v>       0.35047622       0.00000000      -0.00000000 </v>
   <v>       0.00000000       0.35047622      -0.00000000 </v>
   <v>       0.00000000      -0.00000000       0.35047622 </v>
  </varray>
  <energy>
   <i name="e_fr_energy">     -8.36382562 </i>
   <i name="e_wo_entrp">     -8.36380907 </i>
   <i name="e_0_energy">     -0.00003308 </i>
  </energy>
  <time name="totalsc">    3.41    3.42</time>
 </calculation>
 <calculation>
  <scstep>
   <time name="dav">    0.50    0.50</time>
   <time name="total">    0.65    0.65</time>
   <energy>
    <i name="alphaZ">    138.36913823 </i>
    <i name="ewald">  -2703.80208432 </i>
    <i name="hartreedc">  -1205.17329309 </i>
    <i name="XCdc">    148.04508439 </i>
    <i name="pawpsdc">   3501.11536054 </i>
    <i name="pawaedc">  -3460.18806601 </i>
    <i name="eentropy">     -0.00003600 </i>
    <i name="bandstr">   -598.44407878 </i>
    <i name="atom">   4171.71390993 </i>
    <i name="e_fr_energy">     -8.36406510 </i>
    <i name="e_wo_entrp">     -8.36402910 </i>
    <i name="e_0_energy">     -8.36404710 </i>
   </energy>
  </scstep>
  <scstep>
   <time name="dav">    0.54    0.54</time>
   <time name="total">    0.69    0.69</time>
   <energy>
    <i name="e_fr_energy">     -8.36389480 </i>
    <i name="e_wo_entrp">     -8.36385829 </i>
    <i name="e_0_energy">     -8.36387655 </i>
   </energy>
  </scstep>
  <scstep>
   <time name="dav">    0.54    0.54</time>
   <time name="total">    0.69    0.69</time>
   <energy>
    <i name="e_fr_energy">     -8.36385259 </i>
    <i name="e_wo_entrp">     -8.36381701 </i>
    <i name="e_0_energy">     -8.36383480 </i>
   </energy>
  </scstep>
  <scstep>
   <time name="dav">    0.42    0.42</time>
   <time name="total">    0.57    0.57</time>
   <energy>
    <i name="e_fr_energy">     -8.36385130 </i>
    <i name="e_wo_entrp">     -8.36381619 </i>
    <i name="e_0_energy">     -8.36383374 </i>
   </energy>
  </scstep>
  <scstep>
   <time name="dav">    0.31    0.31</time>
   <time name="total">    0.40    0.40</time>
   <energy>
    <i name="alphaZ">    138.36913823 </i>
    <i name="ewald">  -2703.80208432 </i>
    <i name="hartreedc">  -1205.93526712 </i>
    <i name="XCdc">    148.08204872 </i>
    <i name="pawpsdc">   3500.82909210 </i>
    <i name="pawaedc">  -3459.89614160 </i>
    <i name="eentropy">     -0.00003532 </i>
    <i name="bandstr">   -597.72451056 </i>
    <i name="atom">   4171.71390993 </i>
    <i name="e_fr_energy">     -8.36384993 </i>
    <i name="e_wo_entrp">     -8.36381461 </i>
    <i name="e_0_energy">     -8.36383227 </i>
   </energy>
  </scstep>
  <structure>
   <crystal>
    <varray name="basis" >
     <v>      -0.00000000       4.40620048       4.40620048 </v>
     <v>       4.40620048       0.00000000       4.40620048 </v>
     <v>       4.40620048       4.40620048      -0.00000000 </v>
    </varray>
    <i name="volume">    171.08926298 </i>
    <varray name="rec_basis" >
     <v>      -0.11347645       0.11347645       0.11347645 </v>
     <v>       0.11347645      -0.11347645       0.11347645 </v>
     <v>       0.11347645       0.11347645      -0.11347645 </v>
    </varray>
   </crystal>
   <varray name="positions" >
    <v>       0.24999994       0.24999994       0.24999994 </v>
    <v>      -0.00000000       0.00000000       0.00000000 </v>
    <v>       0.49999989       0.49999989       0.49999989 </v>
    <v>       0.74999983       0.74999983       0.74999983 </v>
   </varray>
  </structure>
  <varray name="forces" >
   <v>      -0.00000000      -0.00000000       0.00000000 </v>
   <v>      -0.00000000      -0.00000000      -0.00000000 </v>
   <v>       0.00000000       0.00000000       0.00000000 </v>
   <v>      -0.00000000       0.00000000      -0.00000000 </v>
  </varray>
  <varray name="stress" >
   <v>       0.18734136       0.00000000      -0.00000000 </v>
   <v>       0.00000000       0.18734136       0.00000000 </v>
   <v>      -0.00000000      -0.00000000       0.18734136 </v>
  </varray>
  <energy>
   <i name="e_fr_energy">     -8.36384993 </i>
   <i name="e_wo_entrp">     -8.36383227 </i>
   <i name="e_0_energy">     -0.00003532 </i>
  </energy>
  <time name="totalsc">    3.70    3.71</time>
 </calculation>
 <calculation>
  <scstep>
   <time name="dav">    0.49    0.50</time>
   <time name="total">    0.65    0.65</time>
   <energy>
    <i name="alphaZ">    138.15409325 </i>
    <i name="ewald">  -2702.40066263 </i>
    <i name="hartreedc">  -1205.29917819 </i>
    <i name="XCdc">    148.00194896 </i>
    <i name="pawpsdc">   3500.78038220 </i>
    <i name="pawaedc">  -3459.84867001 </i>
    <i name="eentropy">     -0.00004142 </i>
    <i name="bandstr">   -599.46652256 </i>
    <i name="atom">   4171.71390993 </i>
    <i name="e_fr_energy">     -8.36474047 </i>
    <i name="e_wo_entrp">     -8.36469904 </i>
    <i name="e_0_energy">     -8.36471976 </i>
   </energy>
  </scstep>
  <scstep>
   <time name="dav">    0.57    0.57</time>
   <time name="total">    0.72    0.72</time>
   <energy>
    <i name="e_fr_energy">     -8.36405080 </i>
    <i name="e_wo_entrp">     -8.36400817 </i>
    <i name="e_0_energy">     -8.36402948 </i>
   </energy>
  </scstep>
  <scstep>
   <time name="dav">    0.56    0.56</time>
   <time name="total">    0.70    0.70</time>
   <energy>
    <i name="e_fr_energy">     -8.36387871 </i>
    <i name="e_wo_entrp">     -8.36383823 </i>
    <i name="e_0_energy">     -8.36385847 </i>
   </energy>
  </scstep>
  <scstep>
   <time name="dav">    0.53    0.53</time>
   <time name="total">    0.68    0.68</time>
   <energy>
    <i name="e_fr_energy">     -8.36388023 </i>
    <i name="e_wo_entrp">     -8.36384078 </i>
    <i name="e_0_energy">     -8.36386051 </i>
   </energy>
  </scstep>
  <scstep>
   <time name="dav">    0.35    0.35</time>
   <time name="total">    0.44    0.44</time>
   <energy>
    <i name="alphaZ">    138.15409325 </i>
    <i name="ewald">  -2702.40066263 </i>
    <i name="hartreedc">  -1206.80520054 </i>
    <i name="XCdc">    148.07494045 </i>
    <i name="pawpsdc">   3500.33488262 </i>
    <i name="pawaedc">  -3459.39762208 </i>
    <i name="eentropy">     -0.00004011 </i>
    <i name="bandstr">   -598.03817903 </i>
    <i name="atom">   4171.71390993 </i>
    <i name="e_fr_energy">     -8.36387815 </i>
    <i name="e_wo_entrp">     -8.36383803 </i>
    <i name="e_0_energy">     -8.36385809 </i>
   </energy>
  </scstep>
  <structure>
   <crystal>
    <varray name="basis" >
     <v>      -0.00000000       4.40848546       4.40848546 </v>
     <v>       4.40848546       0.00000000       4.40848546 </v>
     <v>       4.40848546       4.40848546      -0.00000000 </v>
    </varray>
    <i name="volume">    171.35557349 </i>
    <varray name="rec_basis" >
     <v>      -0.11341764       0.11341764       0.11341764 </v>
     <v>       0.11341764      -0.11341764       0.11341764 </v>
     <v>       0.11341764       0.11341764      -0.11341764 </v>
    </varray>
   </crystal>
   <varray name="positions" >
    <v>       0.24999994       0.24999994       0.24999994 </v>
    <v>      -0.00000000       0.00000000       0.00000000 </v>
    <v>       0.49999989       0.49999989       0.49999989 </v>
    <v>       0.74999983       0.74999983       0.74999983 </v>
   </varray>
  </structure>
  <varray name="forces" >
   <v>      -0.00000000       0.00000000       0.00000000 </v>
   <v>       0.00000000       0.00000000       0.00000000 </v>
   <v>      -0.00000000      -0.00000000      -0.00000000 </v>
   <v>       0.00000000      -0.00000000      -0.00000000 </v>
  </varray>
  <varray name="stress" >
   <v>      -0.02970680       0.00000000       0.00000000 </v>
   <v>      -0.00000000      -0.02970680       0.00000000 </v>
   <v>       0.00000000       0.00000000      -0.02970680 </v>
  </varray>
  <energy>
   <i name="e_fr_energy">     -8.36387815 </i>
   <i name="e_wo_entrp">     -8.36385809 </i>
   <i name="e_0_energy">     -0.00004011 </i>
  </energy>
  <time name="totalsc">    3.82    3.84</time>
  <eigenvalues>
   <array>
    <dimension dim="1">band</dimension>
    <dimension dim="2">kpoint</dimension>
    <dimension dim="3">spin</dimension>
    <field>eigene</field>
    <field>occ</field>
    <set>
     <set comment="spin 1">
      <set comment="kpoint 1">
       <r>  -29.4978    1.0000 </r>
       <r>  -29.4874    1.0000 </r>
       <r>  -26.8496    1.0000 </r>
       <r>  -19.4897    1.0000 </r>
       <r>  -19.4897    1.0000 </r>
       <r>  -19.4897    1.0000 </r>
       <r>  -19.4839    1.0000 </r>
       <r>  -19.4839    1.0000 </r>
       <r>  -13.0321    1.0000 </r>
       <r>  -13.0321    1.0000 </r>
       <r>  -13.0321    1.0000 </r>
       <r>  -12.9832    1.0000 </r>
       <r>  -12.9832    1.0000 </r>
       <r>  -12.9832    1.0000 </r>
       <r>  -10.9528    1.0000 </r>
       <r>  -10.9528    1.0000 </r>
       <r>  -10.9528    1.0000 </r>
       <r>   -7.5075    1.0000 </r>
       <r>    1.3721    0.9901 </r>
       <r>    1.3721    0.9901 </r>
       <r>    1.3721    0.9901 </r>
       <r>    1.5100    0.0582 </r>
       <r>    3.9888    0.0000 </r>
       <r>    3.9888    0.0000 </r>
       <r>    4.5412    0.0000 </r>
      </set>
      <set comment="kpoint 2">
       <r>  -29.4974    1.0000 </r>
       <r>  -29.4878    1.0000 </r>
       <r>  -26.8497    1.0000 </r>
       <r>  -19.4897    1.0000 </r>
       <r>  -19.4897    1.0000 </r>
       <r>  -19.4896    1.0000 </r>
       <r>  -19.4839    1.0000 </r>
       <r>  -19.4839    1.0000 </r>
       <r>  -13.0330    1.0000 </r>
       <r>  -13.0308    1.0000 </r>
       <r>  -13.0308    1.0000 </r>
       <r>  -12.9854    1.0000 </r>
       <r>  -12.9854    1.0000 </r>
       <r>  -12.9841    1.0000 </r>
       <r>  -10.9549    1.0000 </r>
       <r>  -10.9519    1.0000 </r>
       <r>  -10.9519    1.0000 </r>
       <r>   -7.4929    1.0000 </r>
       <r>    0.8300    1.0000 </r>
       <r>    1.3373    0.9995 </r>
       <r>    1.3373    0.9995 </r>
       <r>    2.1894    0.0000 </r>
       <r>    4.1079    0.0000 </r>
       <r>    4.1079    0.0000 </r>
       <r>    4.4518    0.0000 </r>
      </set>
      <set comment="kpoint 3">
       <r>  -29.4962    1.0000 </r>
       <r>  -29.4889    1.0000 </r>
       <r>  -26.8499    1.0000 </r>
       <r>  -19.4896    1.0000 </r>
       <r>  -19.4896    1.0000 </r>
       <r>  -19.4895    1.0000 </r>
       <r>  -19.4839    1.0000 </r>
       <r>  -19.4839    1.0000 </r>
       <r>  -13.0327    1.0000 </r>
       <r>  -13.0267    1.0000 </r>
       <r>  -13.0267    1.0000 </r>
       <r>  -12.9915    1.0000 </r>
       <r>  -12.9915    1.0000 </r>
       <r>  -12.9891    1.0000 </r>
       <r>  -10.9591    1.0000 </r>
       <r>  -10.9499    1.0000 </r>
       <r>  -10.9499    1.0000 </r>
       <r>   -7.4587    1.0000 </r>
       <r>    0.4099    1.0000 </r>
       <r>    1.2619    1.0000 </r>
       <r>    1.2619    1.0000 </r>
       <r>    2.8855    0.0000 </r>
       <r>    4.3969    0.0000 </r>
       <r>    4.3969    0.0000 </r>
       <r>    4.4907    0.0000 </r>
      </set>
      <set comment="kpoint 4">
       <r>  -29.4944    1.0000 </r>
       <r>  -29.4905    1.0000 </r>
       <r>  -26.8501    1.0000 </r>
       <r>  -19.4896    1.0000 </r>
       <r>  -19.4896    1.0000 </r>
       <r>  -19.4893    1.0000 </r>
       <r>  -19.4839    1.0000 </r>
       <r>  -19.4839    1.0000 </r>
       <r>  -13.0278    1.0000 </r>
       <r>  -13.0202    1.0000 </r>
       <r>  -13.0202    1.0000 </r>
       <r>  -13.0000    1.0000 </r>
       <r>  -13.0000    1.0000 </r>
       <r>  -12.9990    1.0000 </r>
       <r>  -10.9624    1.0000 </r>
       <r>  -10.9478    1.0000 </r>
       <r>  -10.9478    1.0000 </r>
       <r>   -7.4260    1.0000 </r>
       <r>    0.1673    1.0000 </r>
       <r>    1.1958    1.0000 </r>
       <r>    1.1958    1.0000 </r>
       <r>    3.2727    0.0000 </r>
       <r>    4.6851    0.0000 </r>
       <r>    4.6851    0.0000 </r>
       <r>    4.9455    0.0000 </r>
      </set>
      <set comment="kpoint 5">
       <r>  -29.4925    1.0000 </r>
       <r>  -29.4924    1.0000 </r>
       <r>  -26.8502    1.0000 </r>
       <r>  -19.4896    1.0000 </r>
       <r>  -19.4896    1.0000 </r>
       <r>  -19.4892    1.0000 </r>
       <r>  -19.4839    1.0000 </r>
       <r>  -19.4839    1.0000 </r>
       <r>  -13.0220    1.0000 </r>
       <r>  -13.0144    1.0000 </r>
       <r>  -13.0144    1.0000 </r>
       <r>  -13.0070    1.0000 </r>
       <r>  -13.0066    1.0000 </r>
       <r>  -13.0066    1.0000 </r>
       <r>  -10.9635    1.0000 </r>
       <r>  -10.9469    1.0000 </r>
       <r>  -10.9469    1.0000 </r>
       <r>   -7.4129    1.0000 </r>
       <r>    0.0879    1.0000 </r>
       <r>    1.1707    1.0000 </r>
       <r>    1.1707    1.0000 </r>
       <r>    3.4122    0.0000 </r>
       <r>    4.6799    0.0000 </r>
       <r>    4.8043    0.0000 </r>
       <r>    4.8043    0.0000 </r>
      </set>
      <set comment="kpoint 6">
       <r>  -29.4973    1.0000 </r>
       <r>  -29.4879    1.0000 </r>
       <r>  -26.8498    1.0000 </r>
       <r>  -19.4897    1.0000 </r>
       <r>  -19.4897    1.0000 </r>
       <r>  -19.4896    1.0000 </r>
       <r>  -19.4839    1.0000 </r>
       <r>  -19.4838    1.0000 </r>
       <r>  -13.0362    1.0000 </r>
       <r>  -13.0362    1.0000 </r>
       <r>  -13.0219    1.0000 </r>
       <r>  -12.9944    1.0000 </r>
       <r>  -12.9809    1.0000 </r>
       <r>  -12.9809    1.0000 </r>
       <r>  -10.9565    1.0000 </r>
       <r>  -10.9512    1.0000 </r>
       <r>  -10.9512    1.0000 </r>
       <r>   -7.4886    1.0000 </r>
       <r>    0.7439    1.0000 </r>
       <r>    1.3510    0.9983 </r>
       <r>    1.3510    0.9983 </r>
       <r>    2.2721    0.0000 </r>
       <r>    4.0946    0.0000 </r>
       <r>    4.1912    0.0000 </r>
       <r>    4.2526    0.0000 </r>
      </set>
      <set comment="kpoint 7">
       <r>  -29.4964    1.0000 </r>
       <r>  -29.4887    1.0000 </r>
       <r>  -26.8499    1.0000 </r>
       <r>  -19.4896    1.0000 </r>
       <r>  -19.4896    1.0000 </r>
       <r>  -19.4895    1.0000 </r>
       <r>  -19.4839    1.0000 </r>
       <r>  -19.4838    1.0000 </r>
       <r>  -13.0390    1.0000 </r>
       <r>  -13.0381    1.0000 </r>
       <r>  -13.0121    1.0000 </r>
       <r>  -13.0061    1.0000 </r>
       <r>  -12.9811    1.0000 </r>
       <r>  -12.9810    1.0000 </r>
       <r>  -10.9599    1.0000 </r>
       <r>  -10.9498    1.0000 </r>
       <r>  -10.9492    1.0000 </r>
       <r>   -7.4625    1.0000 </r>
       <r>    0.4557    1.0000 </r>
       <r>    1.2651    1.0000 </r>
       <r>    1.3050    1.0000 </r>
       <r>    2.8208    0.0000 </r>
       <r>    4.0898    0.0000 </r>
       <r>    4.2985    0.0000 </r>
       <r>    4.3915    0.0000 </r>
      </set>
      <set comment="kpoint 8">
       <r>  -29.4949    1.0000 </r>
       <r>  -29.4900    1.0000 </r>
       <r>  -26.8501    1.0000 </r>
       <r>  -19.4896    1.0000 </r>
       <r>  -19.4896    1.0000 </r>
       <r>  -19.4893    1.0000 </r>
       <r>  -19.4839    1.0000 </r>
       <r>  -19.4838    1.0000 </r>
       <r>  -13.0379    1.0000 </r>
       <r>  -13.0356    1.0000 </r>
       <r>  -13.0188    1.0000 </r>
       <r>  -13.0013    1.0000 </r>
       <r>  -12.9870    1.0000 </r>
       <r>  -12.9856    1.0000 </r>
       <r>  -10.9619    1.0000 </r>
       <r>  -10.9489    1.0000 </r>
       <r>  -10.9471    1.0000 </r>
       <r>   -7.4313    1.0000 </r>
       <r>    0.2558    1.0000 </r>
       <r>    1.1363    1.0000 </r>
       <r>    1.2355    1.0000 </r>
       <r>    3.2934    0.0000 </r>
       <r>    4.3207    0.0000 </r>
       <r>    4.4340    0.0000 </r>
       <r>    4.6002    0.0000 </r>
      </set>
      <set comment="kpoint 9">
       <r>  -29.4931    1.0000 </r>
       <r>  -29.4918    1.0000 </r>
       <r>  -26.8502    1.0000 </r>
       <r>  -19.4895    1.0000 </r>
       <r>  -19.4895    1.0000 </r>
       <r>  -19.4892    1.0000 </r>
       <r>  -19.4839    1.0000 </r>
       <r>  -19.4839    1.0000 </r>
       <r>  -13.0367    1.0000 </r>
       <r>  -13.0286    1.0000 </r>
       <r>  -13.0243    1.0000 </r>
       <r>  -12.9981    1.0000 </r>
       <r>  -12.9933    1.0000 </r>
       <r>  -12.9907    1.0000 </r>
       <r>  -10.9621    1.0000 </r>
       <r>  -10.9487    1.0000 </r>
       <r>  -10.9462    1.0000 </r>
       <r>   -7.4128    1.0000 </r>
       <r>    0.1705    1.0000 </r>
       <r>    1.0601    1.0000 </r>
       <r>    1.1838    1.0000 </r>
       <r>    3.5614    0.0000 </r>
       <r>    4.1815    0.0000 </r>
       <r>    4.8041    0.0000 </r>
       <r>    4.8282    0.0000 </r>
      </set>
      <set comment="kpoint 10">
       <r>  -29.4936    1.0000 </r>
       <r>  -29.4912    1.0000 </r>
       <r>  -26.8502    1.0000 </r>
       <r>  -19.4895    1.0000 </r>
       <r>  -19.4895    1.0000 </r>
       <r>  -19.4892    1.0000 </r>
       <r>  -19.4839    1.0000 </r>
       <r>  -19.4839    1.0000 </r>
       <r>  -13.0420    1.0000 </r>
       <r>  -13.0182    1.0000 </r>
       <r>  -13.0168    1.0000 </r>
       <r>  -13.0085    1.0000 </r>
       <r>  -13.0028    1.0000 </r>
       <r>  -12.9822    1.0000 </r>
       <r>  -10.9615    1.0000 </r>
       <r>  -10.9488    1.0000 </r>
       <r>  -10.9470    1.0000 </r>
       <r>   -7.4166    1.0000 </r>
       <r>    0.1897    1.0000 </r>
       <r>    1.0768    1.0000 </r>
       <r>    1.1729    1.0000 </r>
       <r>    3.5449    0.0000 </r>
       <r>    4.2054    0.0000 </r>
       <r>    4.7846    0.0000 </r>
       <r>    4.9784    0.0000 </r>
      </set>
      <set comment="kpoint 11">
       <r>  -29.4954    1.0000 </r>
       <r>  -29.4896    1.0000 </r>
       <r>  -26.8500    1.0000 </r>
       <r>  -19.4896    1.0000 </r>
       <r>  -19.4896    1.0000 </r>
       <r>  -19.4894    1.0000 </r>
       <r>  -19.4839    1.0000 </r>
       <r>  -19.4839    1.0000 </r>
       <r>  -13.0436    1.0000 </r>
       <r>  -13.0222    1.0000 </r>
       <r>  -13.0136    1.0000 </r>
       <r>  -13.0053    1.0000 </r>
       <r>  -13.0010    1.0000 </r>
       <r>  -12.9777    1.0000 </r>
       <r>  -10.9602    1.0000 </r>
       <r>  -10.9493    1.0000 </r>
       <r>  -10.9489    1.0000 </r>
       <r>   -7.4407    1.0000 </r>
       <r>    0.3149    1.0000 </r>
       <r>    1.1791    1.0000 </r>
       <r>    1.2075    1.0000 </r>
       <r>    3.2280    0.0000 </r>
       <r>    4.3373    0.0000 </r>
       <r>    4.4210    0.0000 </r>
       <r>    4.6341    0.0000 </r>
      </set>
      <set comment="kpoint 12">
       <r>  -29.4967    1.0000 </r>
       <r>  -29.4884    1.0000 </r>
       <r>  -26.8498    1.0000 </r>
       <r>  -19.4897    1.0000 </r>
       <r>  -19.4896    1.0000 </r>
       <r>  -19.4896    1.0000 </r>
       <r>  -19.4839    1.0000 </r>
       <r>  -19.4839    1.0000 </r>
       <r>  -13.0395    1.0000 </r>
       <r>  -13.0283    1.0000 </r>
       <r>  -13.0228    1.0000 </r>
       <r>  -12.9941    1.0000 </r>
       <r>  -12.9911    1.0000 </r>
       <r>  -12.9788    1.0000 </r>
       <r>  -10.9575    1.0000 </r>
       <r>  -10.9510    1.0000 </r>
       <r>  -10.9504    1.0000 </r>
       <r>   -7.4725    1.0000 </r>
       <r>    0.5555    1.0000 </r>
       <r>    1.2743    1.0000 </r>
       <r>    1.3005    1.0000 </r>
       <r>    2.6660    0.0000 </r>
       <r>    4.2159    0.0000 </r>
       <r>    4.3041    0.0000 </r>
       <r>    4.3350    0.0000 </r>
      </set>
      <set comment="kpoint 13">
       <r>  -29.4959    1.0000 </r>
       <r>  -29.4891    1.0000 </r>
       <r>  -26.8500    1.0000 </r>
       <r>  -19.4896    1.0000 </r>
       <r>  -19.4896    1.0000 </r>
       <r>  -19.4895    1.0000 </r>
       <r>  -19.4839    1.0000 </r>
       <r>  -19.4838    1.0000 </r>
       <r>  -13.0458    1.0000 </r>
       <r>  -13.0458    1.0000 </r>
       <r>  -13.0216    1.0000 </r>
       <r>  -12.9972    1.0000 </r>
       <r>  -12.9755    1.0000 </r>
       <r>  -12.9755    1.0000 </r>
       <r>  -10.9639    1.0000 </r>
       <r>  -10.9473    1.0000 </r>
       <r>  -10.9473    1.0000 </r>
       <r>   -7.4494    1.0000 </r>
       <r>    0.3621    1.0000 </r>
       <r>    1.3055    1.0000 </r>
       <r>    1.3056    1.0000 </r>
       <r>    2.9549    0.0000 </r>
       <r>    3.7064    0.0000 </r>
       <r>    4.4100    0.0000 </r>
       <r>    4.4254    0.0000 </r>
      </set>
      <set comment="kpoint 14">
       <r>  -29.4949    1.0000 </r>
       <r>  -29.4899    1.0000 </r>
       <r>  -26.8502    1.0000 </r>
       <r>  -19.4895    1.0000 </r>
       <r>  -19.4895    1.0000 </r>
       <r>  -19.4894    1.0000 </r>
       <r>  -19.4839    1.0000 </r>
       <r>  -19.4838    1.0000 </r>
       <r>  -13.0492    1.0000 </r>
       <r>  -13.0481    1.0000 </r>
       <r>  -13.0347    1.0000 </r>
       <r>  -12.9846    1.0000 </r>
       <r>  -12.9761    1.0000 </r>
       <r>  -12.9753    1.0000 </r>
       <r>  -10.9657    1.0000 </r>
       <r>  -10.9465    1.0000 </r>
       <r>  -10.9454    1.0000 </r>
       <r>   -7.4284    1.0000 </r>
       <r>    0.3006    1.0000 </r>
       <r>    1.1754    1.0000 </r>
       <r>    1.2655    1.0000 </r>
       <r>    3.2238    0.0000 </r>
       <r>    3.6446    0.0000 </r>
       <r>    4.4175    0.0000 </r>
       <r>    4.6763    0.0000 </r>
      </set>
      <set comment="kpoint 15">
       <r>  -29.4936    1.0000 </r>
       <r>  -29.4912    1.0000 </r>
       <r>  -26.8503    1.0000 </r>
       <r>  -19.4895    1.0000 </r>
       <r>  -19.4894    1.0000 </r>
       <r>  -19.4892    1.0000 </r>
       <r>  -19.4839    1.0000 </r>
       <r>  -19.4838    1.0000 </r>
       <r>  -13.0537    1.0000 </r>
       <r>  -13.0441    1.0000 </r>
       <r>  -13.0365    1.0000 </r>
       <r>  -12.9844    1.0000 </r>
       <r>  -12.9799    1.0000 </r>
       <r>  -12.9748    1.0000 </r>
       <r>  -10.9632    1.0000 </r>
       <r>  -10.9485    1.0000 </r>
       <r>  -10.9445    1.0000 </r>
       <r>   -7.4121    1.0000 </r>
       <r>    0.3354    1.0000 </r>
       <r>    0.9339    1.0000 </r>
       <r>    1.2139    1.0000 </r>
       <r>    3.3940    0.0000 </r>
       <r>    3.9493    0.0000 </r>
       <r>    4.4656    0.0000 </r>
       <r>    4.9073    0.0000 </r>
      </set>
      <set comment="kpoint 16">
       <r>  -29.4927    1.0000 </r>
       <r>  -29.4921    1.0000 </r>
       <r>  -26.8503    1.0000 </r>
       <r>  -19.4895    1.0000 </r>
       <r>  -19.4894    1.0000 </r>
       <r>  -19.4892    1.0000 </r>
       <r>  -19.4839    1.0000 </r>
       <r>  -19.4838    1.0000 </r>
       <r>  -13.0572    1.0000 </r>
       <r>  -13.0344    1.0000 </r>
       <r>  -13.0271    1.0000 </r>
       <r>  -12.9975    1.0000 </r>
       <r>  -12.9887    1.0000 </r>
       <r>  -12.9695    1.0000 </r>
       <r>  -10.9583    1.0000 </r>
       <r>  -10.9524    1.0000 </r>
       <r>  -10.9451    1.0000 </r>
       <r>   -7.4088    1.0000 </r>
       <r>    0.3795    1.0000 </r>
       <r>    0.8063    1.0000 </r>
       <r>    1.1784    1.0000 </r>
       <r>    3.6313    0.0000 </r>
       <r>    4.0212    0.0000 </r>
       <r>    4.8518    0.0000 </r>
       <r>    4.9012    0.0000 </r>
      </set>
      <set comment="kpoint 17">
       <r>  -29.4941    1.0000 </r>
       <r>  -29.4907    1.0000 </r>
       <r>  -26.8502    1.0000 </r>
       <r>  -19.4895    1.0000 </r>
       <r>  -19.4894    1.0000 </r>
       <r>  -19.4893    1.0000 </r>
       <r>  -19.4839    1.0000 </r>
       <r>  -19.4838    1.0000 </r>
       <r>  -13.0537    1.0000 </r>
       <r>  -13.0207    1.0000 </r>
       <r>  -13.0141    1.0000 </r>
       <r>  -13.0113    1.0000 </r>
       <r>  -13.0003    1.0000 </r>
       <r>  -12.9701    1.0000 </r>
       <r>  -10.9584    1.0000 </r>
       <r>  -10.9516    1.0000 </r>
       <r>  -10.9470    1.0000 </r>
       <r>   -7.4202    1.0000 </r>
       <r>    0.3208    1.0000 </r>
       <r>    0.9553    1.0000 </r>
       <r>    1.1751    1.0000 </r>
       <r>    3.6940    0.0000 </r>
       <r>    4.0876    0.0000 </r>
       <r>    4.5132    0.0000 </r>
       <r>    4.7612    0.0000 </r>
      </set>
      <set comment="kpoint 18">
       <r>  -29.4946    1.0000 </r>
       <r>  -29.4902    1.0000 </r>
       <r>  -26.8503    1.0000 </r>
       <r>  -19.4894    1.0000 </r>
       <r>  -19.4894    1.0000 </r>
       <r>  -19.4893    1.0000 </r>
       <r>  -19.4839    1.0000 </r>
       <r>  -19.4838    1.0000 </r>
       <r>  -13.0551    1.0000 </r>
       <r>  -13.0551    1.0000 </r>
       <r>  -13.0486    1.0000 </r>
       <r>  -12.9722    1.0000 </r>
       <r>  -12.9704    1.0000 </r>
       <r>  -12.9704    1.0000 </r>
       <r>  -10.9695    1.0000 </r>
       <r>  -10.9436    1.0000 </r>
       <r>  -10.9436    1.0000 </r>
       <r>   -7.4197    1.0000 </r>
       <r>    0.3001    1.0000 </r>
       <r>    1.2665    1.0000 </r>
       <r>    1.2666    1.0000 </r>
       <r>    3.0251    0.0000 </r>
       <r>    3.2758    0.0000 </r>
       <r>    4.6109    0.0000 </r>
       <r>    4.9278    0.0000 </r>
      </set>
      <set comment="kpoint 19">
       <r>  -29.4939    1.0000 </r>
       <r>  -29.4908    1.0000 </r>
       <r>  -26.8504    1.0000 </r>
       <r>  -19.4894    1.0000 </r>
       <r>  -19.4894    1.0000 </r>
       <r>  -19.4892    1.0000 </r>
       <r>  -19.4839    1.0000 </r>
       <r>  -19.4838    1.0000 </r>
       <r>  -13.0617    1.0000 </r>
       <r>  -13.0550    1.0000 </r>
       <r>  -13.0494    1.0000 </r>
       <r>  -12.9728    1.0000 </r>
       <r>  -12.9712    1.0000 </r>
       <r>  -12.9651    1.0000 </r>
       <r>  -10.9687    1.0000 </r>
       <r>  -10.9441    1.0000 </r>
       <r>  -10.9427    1.0000 </r>
       <r>   -7.4108    1.0000 </r>
       <r>    0.3680    1.0000 </r>
       <r>    1.0875    1.0000 </r>
       <r>    1.2414    1.0000 </r>
       <r>    3.0124    0.0000 </r>
       <r>    3.3710    0.0000 </r>
       <r>    4.8006    0.0000 </r>
       <r>    5.1895    0.0000 </r>
      </set>
      <set comment="kpoint 20">
       <r>  -29.4930    1.0000 </r>
       <r>  -29.4917    1.0000 </r>
       <r>  -26.8504    1.0000 </r>
       <r>  -19.4894    1.0000 </r>
       <r>  -19.4893    1.0000 </r>
       <r>  -19.4893    1.0000 </r>
       <r>  -19.4839    1.0000 </r>
       <r>  -19.4838    1.0000 </r>
       <r>  -13.0643    1.0000 </r>
       <r>  -13.0476    1.0000 </r>
       <r>  -13.0398    1.0000 </r>
       <r>  -12.9832    1.0000 </r>
       <r>  -12.9776    1.0000 </r>
       <r>  -12.9638    1.0000 </r>
       <r>  -10.9632    1.0000 </r>
       <r>  -10.9485    1.0000 </r>
       <r>  -10.9434    1.0000 </r>
       <r>   -7.4066    1.0000 </r>
       <r>    0.5239    1.0000 </r>
       <r>    0.7361    1.0000 </r>
       <r>    1.2062    1.0000 </r>
       <r>    3.2127    0.0000 </r>
       <r>    3.8380    0.0000 </r>
       <r>    4.8469    0.0000 </r>
       <r>    5.1169    0.0000 </r>
      </set>
      <set comment="kpoint 21">
       <r>  -29.4940    1.0000 </r>
       <r>  -29.4907    1.0000 </r>
       <r>  -26.8504    1.0000 </r>
       <r>  -19.4894    1.0000 </r>
       <r>  -19.4894    1.0000 </r>
       <r>  -19.4892    1.0000 </r>
       <r>  -19.4839    1.0000 </r>
       <r>  -19.4838    1.0000 </r>
       <r>  -13.0598    1.0000 </r>
       <r>  -13.0589    1.0000 </r>
       <r>  -13.0589    1.0000 </r>
       <r>  -12.9682    1.0000 </r>
       <r>  -12.9682    1.0000 </r>
       <r>  -12.9618    1.0000 </r>
       <r>  -10.9713    1.0000 </r>
       <r>  -10.9420    1.0000 </r>
       <r>  -10.9420    1.0000 </r>
       <r>   -7.4102    1.0000 </r>
       <r>    0.3471    1.0000 </r>
       <r>    1.2520    1.0000 </r>
       <r>    1.2520    1.0000 </r>
       <r>    2.8213    0.0000 </r>
       <r>    3.1185    0.0000 </r>
       <r>    4.9405    0.0000 </r>
       <r>    5.5441    0.0000 </r>
      </set>
      <set comment="kpoint 22">
       <r>  -29.4954    1.0000 </r>
       <r>  -29.4896    1.0000 </r>
       <r>  -26.8501    1.0000 </r>
       <r>  -19.4896    1.0000 </r>
       <r>  -19.4895    1.0000 </r>
       <r>  -19.4894    1.0000 </r>
       <r>  -19.4839    1.0000 </r>
       <r>  -19.4838    1.0000 </r>
       <r>  -13.0481    1.0000 </r>
       <r>  -13.0346    1.0000 </r>
       <r>  -13.0203    1.0000 </r>
       <r>  -12.9993    1.0000 </r>
       <r>  -12.9880    1.0000 </r>
       <r>  -12.9739    1.0000 </r>
       <r>  -10.9620    1.0000 </r>
       <r>  -10.9486    1.0000 </r>
       <r>  -10.9477    1.0000 </r>
       <r>   -7.4394    1.0000 </r>
       <r>    0.3322    1.0000 </r>
       <r>    1.1881    1.0000 </r>
       <r>    1.2236    1.0000 </r>
       <r>    3.2427    0.0000 </r>
       <r>    3.9612    0.0000 </r>
       <r>    4.3431    0.0000 </r>
       <r>    4.5963    0.0000 </r>
      </set>
      <set comment="kpoint 23">
       <r>  -29.4940    1.0000 </r>
       <r>  -29.4908    1.0000 </r>
       <r>  -26.8502    1.0000 </r>
       <r>  -19.4895    1.0000 </r>
       <r>  -19.4894    1.0000 </r>
       <r>  -19.4893    1.0000 </r>
       <r>  -19.4839    1.0000 </r>
       <r>  -19.4838    1.0000 </r>
       <r>  -13.0529    1.0000 </r>
       <r>  -13.0327    1.0000 </r>
       <r>  -13.0257    1.0000 </r>
       <r>  -12.9992    1.0000 </r>
       <r>  -12.9877    1.0000 </r>
       <r>  -12.9730    1.0000 </r>
       <r>  -10.9611    1.0000 </r>
       <r>  -10.9500    1.0000 </r>
       <r>  -10.9458    1.0000 </r>
       <r>   -7.4177    1.0000 </r>
       <r>    0.3003    1.0000 </r>
       <r>    0.9981    1.0000 </r>
       <r>    1.1746    1.0000 </r>
       <r>    3.5787    0.0000 </r>
       <r>    4.0921    0.0000 </r>
       <r>    4.3187    0.0000 </r>
       <r>    4.8606    0.0000 </r>
      </set>
      <set comment="kpoint 24">
       <r>  -29.4924    1.0000 </r>
       <r>  -29.4924    1.0000 </r>
       <r>  -26.8503    1.0000 </r>
       <r>  -19.4895    1.0000 </r>
       <r>  -19.4894    1.0000 </r>
       <r>  -19.4892    1.0000 </r>
       <r>  -19.4839    1.0000 </r>
       <r>  -19.4838    1.0000 </r>
       <r>  -13.0538    1.0000 </r>
       <r>  -13.0378    1.0000 </r>
       <r>  -13.0156    1.0000 </r>
       <r>  -13.0104    1.0000 </r>
       <r>  -12.9792    1.0000 </r>
       <r>  -12.9773    1.0000 </r>
       <r>  -10.9595    1.0000 </r>
       <r>  -10.9516    1.0000 </r>
       <r>  -10.9449    1.0000 </r>
       <r>   -7.4090    1.0000 </r>
       <r>    0.3102    1.0000 </r>
       <r>    0.9017    1.0000 </r>
       <r>    1.1572    1.0000 </r>
       <r>    3.7407    0.0000 </r>
       <r>    3.9076    0.0000 </r>
       <r>    4.7604    0.0000 </r>
       <r>    4.8344    0.0000 </r>
      </set>
      <set comment="kpoint 25">
       <r>  -29.4941    1.0000 </r>
       <r>  -29.4907    1.0000 </r>
       <r>  -26.8503    1.0000 </r>
       <r>  -19.4894    1.0000 </r>
       <r>  -19.4894    1.0000 </r>
       <r>  -19.4893    1.0000 </r>
       <r>  -19.4839    1.0000 </r>
       <r>  -19.4838    1.0000 </r>
       <r>  -13.0601    1.0000 </r>
       <r>  -13.0440    1.0000 </r>
       <r>  -13.0426    1.0000 </r>
       <r>  -12.9836    1.0000 </r>
       <r>  -12.9736    1.0000 </r>
       <r>  -12.9691    1.0000 </r>
       <r>  -10.9657    1.0000 </r>
       <r>  -10.9468    1.0000 </r>
       <r>  -10.9438    1.0000 </r>
       <r>   -7.4151    1.0000 </r>
       <r>    0.3471    1.0000 </r>
       <r>    1.0847    1.0000 </r>
       <r>    1.1635    1.0000 </r>
       <r>    3.2889    0.0000 </r>
       <r>    3.6231    0.0000 </r>
       <r>    4.5033    0.0000 </r>
       <r>    4.9430    0.0000 </r>
      </set>
      <set comment="kpoint 26">
       <r>  -29.4930    1.0000 </r>
       <r>  -29.4917    1.0000 </r>
       <r>  -26.8504    1.0000 </r>
       <r>  -19.4894    1.0000 </r>
       <r>  -19.4893    1.0000 </r>
       <r>  -19.4893    1.0000 </r>
       <r>  -19.4839    1.0000 </r>
       <r>  -19.4838    1.0000 </r>
       <r>  -13.0662    1.0000 </r>
       <r>  -13.0458    1.0000 </r>
       <r>  -13.0304    1.0000 </r>
       <r>  -12.9967    1.0000 </r>
       <r>  -12.9700    1.0000 </r>
       <r>  -12.9669    1.0000 </r>
       <r>  -10.9613    1.0000 </r>
       <r>  -10.9508    1.0000 </r>
       <r>  -10.9431    1.0000 </r>
       <r>   -7.4070    1.0000 </r>
       <r>    0.4913    1.0000 </r>
       <r>    0.8126    1.0000 </r>
       <r>    1.1160    1.0000 </r>
       <r>    3.3460    0.0000 </r>
       <r>    3.9656    0.0000 </r>
       <r>    4.6189    0.0000 </r>
       <r>    4.9521    0.0000 </r>
      </set>
      <set comment="kpoint 27">
       <r>  -29.4929    1.0000 </r>
       <r>  -29.4919    1.0000 </r>
       <r>  -26.8503    1.0000 </r>
       <r>  -19.4894    1.0000 </r>
       <r>  -19.4893    1.0000 </r>
       <r>  -19.4893    1.0000 </r>
       <r>  -19.4839    1.0000 </r>
       <r>  -19.4838    1.0000 </r>
       <r>  -13.0637    1.0000 </r>
       <r>  -13.0415    1.0000 </r>
       <r>  -13.0148    1.0000 </r>
       <r>  -13.0121    1.0000 </r>
       <r>  -12.9767    1.0000 </r>
       <r>  -12.9665    1.0000 </r>
       <r>  -10.9566    1.0000 </r>
       <r>  -10.9548    1.0000 </r>
       <r>  -10.9440    1.0000 </r>
       <r>   -7.4080    1.0000 </r>
       <r>    0.4800    1.0000 </r>
       <r>    0.7643    1.0000 </r>
       <r>    1.1242    1.0000 </r>
       <r>    3.5215    0.0000 </r>
       <r>    4.2194    0.0000 </r>
       <r>    4.4134    0.0000 </r>
       <r>    4.9234    0.0000 </r>
      </set>
      <set comment="kpoint 28">
       <r>  -29.4935    1.0000 </r>
       <r>  -29.4912    1.0000 </r>
       <r>  -26.8504    1.0000 </r>
       <r>  -19.4894    1.0000 </r>
       <r>  -19.4893    1.0000 </r>
       <r>  -19.4892    1.0000 </r>
       <r>  -19.4839    1.0000 </r>
       <r>  -19.4838    1.0000 </r>
       <r>  -13.0681    1.0000 </r>
       <r>  -13.0506    1.0000 </r>
       <r>  -13.0459    1.0000 </r>
       <r>  -12.9818    1.0000 </r>
       <r>  -12.9673    1.0000 </r>
       <r>  -12.9627    1.0000 </r>
       <r>  -10.9668    1.0000 </r>
       <r>  -10.9461    1.0000 </r>
       <r>  -10.9421    1.0000 </r>
       <r>   -7.4076    1.0000 </r>
       <r>    0.4376    1.0000 </r>
       <r>    1.0436    1.0000 </r>
       <r>    1.1062    1.0000 </r>
       <r>    3.0791    0.0000 </r>
       <r>    3.4988    0.0000 </r>
       <r>    4.9127    0.0000 </r>
       <r>    5.1685    0.0000 </r>
      </set>
      <set comment="kpoint 29">
       <r>  -29.4924    1.0000 </r>
       <r>  -29.4923    1.0000 </r>
       <r>  -26.8504    1.0000 </r>
       <r>  -19.4894    1.0000 </r>
       <r>  -19.4893    1.0000 </r>
       <r>  -19.4893    1.0000 </r>
       <r>  -19.4839    1.0000 </r>
       <r>  -19.4838    1.0000 </r>
       <r>  -13.0718    1.0000 </r>
       <r>  -13.0471    1.0000 </r>
       <r>  -13.0141    1.0000 </r>
       <r>  -13.0141    1.0000 </r>
       <r>  -12.9656    1.0000 </r>
       <r>  -12.9645    1.0000 </r>
       <r>  -10.9562    1.0000 </r>
       <r>  -10.9562    1.0000 </r>
       <r>  -10.9422    1.0000 </r>
       <r>   -7.4051    1.0000 </r>
       <r>    0.6930    1.0000 </r>
       <r>    0.6930    1.0000 </r>
       <r>    0.9875    1.0000 </r>
       <r>    3.3271    0.0000 </r>
       <r>    4.3311    0.0000 </r>
       <r>    4.3311    0.0000 </r>
       <r>    4.8658    0.0000 </r>
      </set>
     </set>
    </set>
   </array>
  </eigenvalues>
  <separator name="orbital magnetization" >
   <v name="MAGDIPOLOUT">      0.00000000      0.00000000      0.00000000</v>
  </separator>
  <dos>
   <i name="efermi">      1.45447757 </i>
   <total>
    <array>
     <dimension dim="1">gridpoints</dimension>
     <dimension dim="2">spin</dimension>
     <field>energy</field>
     <field>total</field>
     <field>integrated</field>
     <set>
      <set comment="spin 1">
       <r>   -31.2499     0.0000     0.0000 </r>
       <r>   -31.1214     0.0000     0.0000 </r>
       <r>   -30.9930     0.0000     0.0000 </r>
       <r>   -30.8645     0.0000     0.0000 </r>
       <r>   -30.7360     0.0000     0.0000 </r>
       <r>   -30.6075     0.0000     0.0000 </r>
       <r>   -30.4790     0.0000     0.0000 </r>
       <r>   -30.3505     0.0000     0.0000 </r>
       <r>   -30.2220     0.0000     0.0000 </r>
       <r>   -30.0935     0.0000     0.0000 </r>
       <r>   -29.9651     0.0000     0.0000 </r>
       <r>   -29.8366     0.0000     0.0000 </r>
       <r>   -29.7081     0.0000     0.0000 </r>
       <r>   -29.5796     0.2155     0.0277 </r>
       <r>   -29.4511    27.1277     3.5133 </r>
       <r>   -29.3226     3.7883     4.0000 </r>
       <r>   -29.1941     0.0000     4.0000 </r>
       <r>   -29.0656     0.0000     4.0000 </r>
       <r>   -28.9372     0.0000     4.0000 </r>
       <r>   -28.8087     0.0000     4.0000 </r>
       <r>   -28.6802     0.0000     4.0000 </r>
       <r>   -28.5517     0.0000     4.0000 </r>
       <r>   -28.4232     0.0000     4.0000 </r>
       <r>   -28.2947     0.0000     4.0000 </r>
       <r>   -28.1662     0.0000     4.0000 </r>
       <r>   -28.0377     0.0000     4.0000 </r>
       <r>   -27.9093     0.0000     4.0000 </r>
       <r>   -27.7808     0.0000     4.0000 </r>
       <r>   -27.6523     0.0000     4.0000 </r>
       <r>   -27.5238     0.0000     4.0000 </r>
       <r>   -27.3953     0.0000     4.0000 </r>
       <r>   -27.2668     0.0000     4.0000 </r>
       <r>   -27.1383     0.0000     4.0000 </r>
       <r>   -27.0098     0.0000     4.0000 </r>
       <r>   -26.8814     2.9423     4.3781 </r>
       <r>   -26.7529    12.5774     5.9941 </r>
       <r>   -26.6244     0.0460     6.0000 </r>
       <r>   -26.4959     0.0000     6.0000 </r>
       <r>   -26.3674     0.0000     6.0000 </r>
       <r>   -26.2389     0.0000     6.0000 </r>
       <r>   -26.1104     0.0000     6.0000 </r>
       <r>   -25.9819     0.0000     6.0000 </r>
       <r>   -25.8535     0.0000     6.0000 </r>
       <r>   -25.7250     0.0000     6.0000 </r>
       <r>   -25.5965     0.0000     6.0000 </r>
       <r>   -25.4680     0.0000     6.0000 </r>
       <r>   -25.3395     0.0000     6.0000 </r>
       <r>   -25.2110     0.0000     6.0000 </r>
       <r>   -25.0825     0.0000     6.0000 </r>
       <r>   -24.9541     0.0000     6.0000 </r>
       <r>   -24.8256     0.0000     6.0000 </r>
       <r>   -24.6971     0.0000     6.0000 </r>
       <r>   -24.5686     0.0000     6.0000 </r>
       <r>   -24.4401     0.0000     6.0000 </r>
       <r>   -24.3116     0.0000     6.0000 </r>
       <r>   -24.1831     0.0000     6.0000 </r>
       <r>   -24.0546     0.0000     6.0000 </r>
       <r>   -23.9262     0.0000     6.0000 </r>
       <r>   -23.7977     0.0000     6.0000 </r>
       <r>   -23.6692     0.0000     6.0000 </r>
       <r>   -23.5407     0.0000     6.0000 </r>
       <r>   -23.4122     0.0000     6.0000 </r>
       <r>   -23.2837     0.0000     6.0000 </r>
       <r>   -23.1552     0.0000     6.0000 </r>
       <r>   -23.0267     0.0000     6.0000 </r>
       <r>   -22.8983     0.0000     6.0000 </r>
       <r>   -22.7698     0.0000     6.0000 </r>
       <r>   -22.6413     0.0000     6.0000 </r>
       <r>   -22.5128     0.0000     6.0000 </r>
       <r>   -22.3843     0.0000     6.0000 </r>
       <r>   -22.2558     0.0000     6.0000 </r>
       <r>   -22.1273     0.0000     6.0000 </r>
       <r>   -21.9988     0.0000     6.0000 </r>
       <r>   -21.8704     0.0000     6.0000 </r>
       <r>   -21.7419     0.0000     6.0000 </r>
       <r>   -21.6134     0.0000     6.0000 </r>
       <r>   -21.4849     0.0000     6.0000 </r>
       <r>   -21.3564     0.0000     6.0000 </r>
       <r>   -21.2279     0.0000     6.0000 </r>
       <r>   -21.0994     0.0000     6.0000 </r>
       <r>   -20.9709     0.0000     6.0000 </r>
       <r>   -20.8425     0.0000     6.0000 </r>
       <r>   -20.7140     0.0000     6.0000 </r>
       <r>   -20.5855     0.0000     6.0000 </r>
       <r>   -20.4570     0.0000     6.0000 </r>
       <r>   -20.3285     0.0000     6.0000 </r>
       <r>   -20.2000     0.0000     6.0000 </r>
       <r>   -20.0715     0.0000     6.0000 </r>
       <r>   -19.9431     0.0000     6.0000 </r>
       <r>   -19.8146     0.0000     6.0000 </r>
       <r>   -19.6861     0.0000     6.0000 </r>
       <r>   -19.5576     1.8340     6.2356 </r>
       <r>   -19.4291    72.0503    15.4932 </r>
       <r>   -19.3006     3.9445    16.0000 </r>
       <r>   -19.1721     0.0000    16.0000 </r>
       <r>   -19.0436     0.0000    16.0000 </r>
       <r>   -18.9152     0.0000    16.0000 </r>
       <r>   -18.7867     0.0000    16.0000 </r>
       <r>   -18.6582     0.0000    16.0000 </r>
       <r>   -18.5297     0.0000    16.0000 </r>
       <r>   -18.4012     0.0000    16.0000 </r>
       <r>   -18.2727     0.0000    16.0000 </r>
       <r>   -18.1442     0.0000    16.0000 </r>
       <r>   -18.0157     0.0000    16.0000 </r>
       <r>   -17.8873     0.0000    16.0000 </r>
       <r>   -17.7588     0.0000    16.0000 </r>
       <r>   -17.6303     0.0000    16.0000 </r>
       <r>   -17.5018     0.0000    16.0000 </r>
       <r>   -17.3733     0.0000    16.0000 </r>
       <r>   -17.2448     0.0000    16.0000 </r>
       <r>   -17.1163     0.0000    16.0000 </r>
       <r>   -16.9878     0.0000    16.0000 </r>
       <r>   -16.8594     0.0000    16.0000 </r>
       <r>   -16.7309     0.0000    16.0000 </r>
       <r>   -16.6024     0.0000    16.0000 </r>
       <r>   -16.4739     0.0000    16.0000 </r>
       <r>   -16.3454     0.0000    16.0000 </r>
       <r>   -16.2169     0.0000    16.0000 </r>
       <r>   -16.0884     0.0000    16.0000 </r>
       <r>   -15.9599     0.0000    16.0000 </r>
       <r>   -15.8315     0.0000    16.0000 </r>
       <r>   -15.7030     0.0000    16.0000 </r>
       <r>   -15.5745     0.0000    16.0000 </r>
       <r>   -15.4460     0.0000    16.0000 </r>
       <r>   -15.3175     0.0000    16.0000 </r>
       <r>   -15.1890     0.0000    16.0000 </r>
       <r>   -15.0605     0.0000    16.0000 </r>
       <r>   -14.9320     0.0000    16.0000 </r>
       <r>   -14.8036     0.0000    16.0000 </r>
       <r>   -14.6751     0.0000    16.0000 </r>
       <r>   -14.5466     0.0000    16.0000 </r>
       <r>   -14.4181     0.0000    16.0000 </r>
       <r>   -14.2896     0.0000    16.0000 </r>
       <r>   -14.1611     0.0000    16.0000 </r>
       <r>   -14.0326     0.0000    16.0000 </r>
       <r>   -13.9042     0.0000    16.0000 </r>
       <r>   -13.7757     0.0000    16.0000 </r>
       <r>   -13.6472     0.0000    16.0000 </r>
       <r>   -13.5187     0.0000    16.0000 </r>
       <r>   -13.3902     0.0000    16.0000 </r>
       <r>   -13.2617     0.0000    16.0000 </r>
       <r>   -13.1332     0.3096    16.0398 </r>
       <r>   -13.0047    51.4674    22.6527 </r>
       <r>   -12.8763    41.5303    27.9888 </r>
       <r>   -12.7478     0.0872    28.0000 </r>
       <r>   -12.6193     0.0000    28.0000 </r>
       <r>   -12.4908     0.0000    28.0000 </r>
       <r>   -12.3623     0.0000    28.0000 </r>
       <r>   -12.2338     0.0000    28.0000 </r>
       <r>   -12.1053     0.0000    28.0000 </r>
       <r>   -11.9768     0.0000    28.0000 </r>
       <r>   -11.8484     0.0000    28.0000 </r>
       <r>   -11.7199     0.0000    28.0000 </r>
       <r>   -11.5914     0.0000    28.0000 </r>
       <r>   -11.4629     0.0000    28.0000 </r>
       <r>   -11.3344     0.0000    28.0000 </r>
       <r>   -11.2059     0.0000    28.0000 </r>
       <r>   -11.0774     0.0126    28.0016 </r>
       <r>   -10.9489    25.0336    31.2181 </r>
       <r>   -10.8205    21.6452    33.9993 </r>
       <r>   -10.6920     0.0058    34.0000 </r>
       <r>   -10.5635     0.0000    34.0000 </r>
       <r>   -10.4350     0.0000    34.0000 </r>
       <r>   -10.3065     0.0000    34.0000 </r>
       <r>   -10.1780     0.0000    34.0000 </r>
       <r>   -10.0495     0.0000    34.0000 </r>
       <r>    -9.9210     0.0000    34.0000 </r>
       <r>    -9.7926     0.0000    34.0000 </r>
       <r>    -9.6641     0.0000    34.0000 </r>
       <r>    -9.5356     0.0000    34.0000 </r>
       <r>    -9.4071     0.0000    34.0000 </r>
       <r>    -9.2786     0.0000    34.0000 </r>
       <r>    -9.1501     0.0000    34.0000 </r>
       <r>    -9.0216     0.0000    34.0000 </r>
       <r>    -8.8932     0.0000    34.0000 </r>
       <r>    -8.7647     0.0000    34.0000 </r>
       <r>    -8.6362     0.0000    34.0000 </r>
       <r>    -8.5077     0.0000    34.0000 </r>
       <r>    -8.3792     0.0000    34.0000 </r>
       <r>    -8.2507     0.0000    34.0000 </r>
       <r>    -8.1222     0.0000    34.0000 </r>
       <r>    -7.9937     0.0000    34.0000 </r>
       <r>    -7.8653     0.0000    34.0000 </r>
       <r>    -7.7368     0.0000    34.0000 </r>
       <r>    -7.6083     0.0003    34.0000 </r>
       <r>    -7.4798     1.3888    34.1785 </r>
       <r>    -7.3513    13.6784    35.9360 </r>
       <r>    -7.2228     0.4982    36.0000 </r>
       <r>    -7.0943     0.0000    36.0000 </r>
       <r>    -6.9658     0.0000    36.0000 </r>
       <r>    -6.8374     0.0000    36.0000 </r>
       <r>    -6.7089     0.0000    36.0000 </r>
       <r>    -6.5804     0.0000    36.0000 </r>
       <r>    -6.4519     0.0000    36.0000 </r>
       <r>    -6.3234     0.0000    36.0000 </r>
       <r>    -6.1949     0.0000    36.0000 </r>
       <r>    -6.0664     0.0000    36.0000 </r>
       <r>    -5.9379     0.0000    36.0000 </r>
       <r>    -5.8095     0.0000    36.0000 </r>
       <r>    -5.6810     0.0000    36.0000 </r>
       <r>    -5.5525     0.0000    36.0000 </r>
       <r>    -5.4240     0.0000    36.0000 </r>
       <r>    -5.2955     0.0000    36.0000 </r>
       <r>    -5.1670     0.0000    36.0000 </r>
       <r>    -5.0385     0.0000    36.0000 </r>
       <r>    -4.9100     0.0000    36.0000 </r>
       <r>    -4.7816     0.0000    36.0000 </r>
       <r>    -4.6531     0.0000    36.0000 </r>
       <r>    -4.5246     0.0000    36.0000 </r>
       <r>    -4.3961     0.0000    36.0000 </r>
       <r>    -4.2676     0.0000    36.0000 </r>
       <r>    -4.1391     0.0000    36.0000 </r>
       <r>    -4.0106     0.0000    36.0000 </r>
       <r>    -3.8822     0.0000    36.0000 </r>
       <r>    -3.7537     0.0000    36.0000 </r>
       <r>    -3.6252     0.0000    36.0000 </r>
       <r>    -3.4967     0.0000    36.0000 </r>
       <r>    -3.3682     0.0000    36.0000 </r>
       <r>    -3.2397     0.0000    36.0000 </r>
       <r>    -3.1112     0.0000    36.0000 </r>
       <r>    -2.9827     0.0000    36.0000 </r>
       <r>    -2.8543     0.0000    36.0000 </r>
       <r>    -2.7258     0.0000    36.0000 </r>
       <r>    -2.5973     0.0000    36.0000 </r>
       <r>    -2.4688     0.0000    36.0000 </r>
       <r>    -2.3403     0.0000    36.0000 </r>
       <r>    -2.2118     0.0000    36.0000 </r>
       <r>    -2.0833     0.0000    36.0000 </r>
       <r>    -1.9548     0.0000    36.0000 </r>
       <r>    -1.8264     0.0000    36.0000 </r>
       <r>    -1.6979     0.0000    36.0000 </r>
       <r>    -1.5694     0.0000    36.0000 </r>
       <r>    -1.4409     0.0000    36.0000 </r>
       <r>    -1.3124     0.0000    36.0000 </r>
       <r>    -1.1839     0.0000    36.0000 </r>
       <r>    -1.0554     0.0000    36.0000 </r>
       <r>    -0.9269     0.0000    36.0000 </r>
       <r>    -0.7985     0.0000    36.0000 </r>
       <r>    -0.6700     0.0000    36.0000 </r>
       <r>    -0.5415     0.0000    36.0000 </r>
       <r>    -0.4130     0.0000    36.0000 </r>
       <r>    -0.2845     0.0000    36.0000 </r>
       <r>    -0.1560     0.0000    36.0000 </r>
       <r>    -0.0275     0.0001    36.0000 </r>
       <r>     0.1010     0.1079    36.0139 </r>
       <r>     0.2294     1.8145    36.2470 </r>
       <r>     0.3579     6.6976    37.1076 </r>
       <r>     0.4864     4.3405    37.6653 </r>
       <r>     0.6149     1.9527    37.9162 </r>
       <r>     0.7434     0.9211    38.0345 </r>
       <r>     0.8719     3.2240    38.4488 </r>
       <r>     1.0004     2.6885    38.7942 </r>
       <r>     1.1289     6.5368    39.6341 </r>
       <r>     1.2573    13.6456    41.3874 </r>
       <r>     1.3858     4.6193    41.9809 </r>
       <r>     1.5143     0.1654    42.0021 </r>
       <r>     1.6428     0.0137    42.0039 </r>
       <r>     1.7713     0.0000    42.0039 </r>
       <r>     1.8998     0.0000    42.0039 </r>
       <r>     2.0283     0.0000    42.0039 </r>
       <r>     2.1567     0.0433    42.0095 </r>
       <r>     2.2852     0.3167    42.0502 </r>
       <r>     2.4137     0.0656    42.0586 </r>
       <r>     2.5422     0.0001    42.0586 </r>
       <r>     2.6707     0.2015    42.0845 </r>
       <r>     2.7992     0.3865    42.1341 </r>
       <r>     2.9277     0.8584    42.2444 </r>
       <r>     3.0562     1.0613    42.3808 </r>
       <r>     3.1846     0.7657    42.4792 </r>
       <r>     3.3131     4.0350    42.9976 </r>
       <r>     3.4416     3.2505    43.4153 </r>
       <r>     3.5701     2.7797    43.7724 </r>
       <r>     3.6986     3.7863    44.2589 </r>
       <r>     3.8271     1.1362    44.4049 </r>
       <r>     3.9556     2.2245    44.6907 </r>
       <r>     4.0841     3.6871    45.1645 </r>
       <r>     4.2125     3.6296    45.6308 </r>
       <r>     4.3410     5.1155    46.2881 </r>
       <r>     4.4695     6.5979    47.1358 </r>
       <r>     4.5980     3.1750    47.5438 </r>
       <r>     4.7265     3.9713    48.0541 </r>
       <r>     4.8550     5.8467    48.8053 </r>
       <r>     4.9835     6.9436    49.6974 </r>
       <r>     5.1120     0.9965    49.8255 </r>
       <r>     5.2404     1.2047    49.9803 </r>
       <r>     5.3689     0.0623    49.9883 </r>
       <r>     5.4974     0.0085    49.9894 </r>
       <r>     5.6259     0.0818    49.9999 </r>
       <r>     5.7544     0.0009    50.0000 </r>
       <r>     5.8829     0.0000    50.0000 </r>
       <r>     6.0114     0.0000    50.0000 </r>
       <r>     6.1399     0.0000    50.0000 </r>
       <r>     6.2683     0.0000    50.0000 </r>
       <r>     6.3968     0.0000    50.0000 </r>
       <r>     6.5253     0.0000    50.0000 </r>
       <r>     6.6538     0.0000    50.0000 </r>
       <r>     6.7823     0.0000    50.0000 </r>
       <r>     6.9108     0.0000    50.0000 </r>
       <r>     7.0393     0.0000    50.0000 </r>
       <r>     7.1677     0.0000    50.0000 </r>
       <r>     7.2962     0.0000    50.0000 </r>
      </set>
     </set>
    </array>
   </total>
  </dos>
 </calculation>
 <structure name="finalpos" >
  <crystal>
   <varray name="basis" >
    <v>      -0.00000000       4.40848546       4.40848546 </v>
    <v>       4.40848546       0.00000000       4.40848546 </v>
    <v>       4.40848546       4.40848546      -0.00000000 </v>
   </varray>
   <i name="volume">    171.35557349 </i>
   <varray name="rec_basis" >
    <v>      -0.11341764       0.11341764       0.11341764 </v>
    <v>       0.11341764      -0.11341764       0.11341764 </v>
    <v>       0.11341764       0.11341764      -0.11341764 </v>
   </varray>
  </crystal>
  <varray name="positions" >
   <v>       0.24999994       0.24999994       0.24999994 </v>
   <v>      -0.00000000       0.00000000       0.00000000 </v>
   <v>       0.49999989       0.49999989       0.49999989 </v>
   <v>       0.74999983       0.74999983       0.74999983 </v>
  </varray>
 </structure>
</modeling>
