unknown system                          
           1
     0.000000    4.399661    4.399661
     4.399661    0.000000    4.399661
     4.399661    4.399661    0.000000
   Bi   K    Rb
   1   2   1
Direct configuration=     1
   0.24999994  0.24999994  0.24999994
   0.00000000  0.00000000  0.00000000
   0.49999989  0.49999989  0.49999989
   0.74999983  0.74999983  0.74999983
unknown system                          
           1
    -0.000000    4.404487    4.404487
     4.404487    0.000000    4.404487
     4.404487    4.404487   -0.000000
   Bi   K    Rb
   1   2   1
Direct configuration=     2
   0.24999994  0.24999994  0.24999994
  -0.00000000  0.00000000  0.00000000
   0.49999989  0.49999989  0.49999989
   0.74999983  0.74999983  0.74999983
unknown system                          
           1
    -0.000000    4.405058    4.405058
     4.405058    0.000000    4.405058
     4.405058    4.405058   -0.000000
   Bi   K    Rb
   1   2   1
Direct configuration=     3
   0.24999994  0.24999994  0.24999994
  -0.00000000  0.00000000  0.00000000
   0.49999989  0.49999989  0.49999989
   0.74999983  0.74999983  0.74999983
unknown system                          
           1
    -0.000000    4.406200    4.406200
     4.406200    0.000000    4.406200
     4.406200    4.406200   -0.000000
   Bi   K    Rb
   1   2   1
Direct configuration=     4
   0.24999994  0.24999994  0.24999994
  -0.00000000  0.00000000  0.00000000
   0.49999989  0.49999989  0.49999989
   0.74999983  0.74999983  0.74999983
unknown system                          
           1
    -0.000000    4.408485    4.408485
     4.408485    0.000000    4.408485
     4.408485    4.408485   -0.000000
   Bi   K    Rb
   1   2   1
Direct configuration=     5
   0.24999994  0.24999994  0.24999994
  -0.00000000  0.00000000  0.00000000
   0.49999989  0.49999989  0.49999989
   0.74999983  0.74999983  0.74999983
