   4   4   0   0
  0.3006380E+02  0.5540381E-09  0.5540381E-09  0.5540381E-09  0.5000000E-15
  1.000000000000000E-004
  CAR 
 unknown system                          
      9.11936646    -30.84065760  301      2.17025521      1.00000000
    -30.841  0.0000E+00  0.0000E+00
    -30.707  0.0000E+00  0.0000E+00
    -30.574  0.0000E+00  0.0000E+00
    -30.441  0.0000E+00  0.0000E+00
    -30.308  0.0000E+00  0.0000E+00
    -30.175  0.0000E+00  0.0000E+00
    -30.041  0.0000E+00  0.0000E+00
    -29.908  0.0000E+00  0.0000E+00
    -29.775  0.0000E+00  0.0000E+00
    -29.642  0.0000E+00  0.0000E+00
    -29.509  0.0000E+00  0.0000E+00
    -29.375  0.0000E+00  0.0000E+00
    -29.242  0.5112E-10  0.6810E-11
    -29.109  0.1221E-02  0.1626E-03
    -28.976  0.1360E+00  0.1828E-01
    -28.843  0.1294E-01  0.2000E-01
    -28.709  0.2153E-07  0.2000E-01
    -28.576  0.0000E+00  0.2000E-01
    -28.443  0.0000E+00  0.2000E-01
    -28.310  0.0000E+00  0.2000E-01
    -28.177  0.0000E+00  0.2000E-01
    -28.043  0.0000E+00  0.2000E-01
    -27.910  0.0000E+00  0.2000E-01
    -27.777  0.0000E+00  0.2000E-01
    -27.644  0.0000E+00  0.2000E-01
    -27.511  0.0000E+00  0.2000E-01
    -27.377  0.0000E+00  0.2000E-01
    -27.244  0.0000E+00  0.2000E-01
    -27.111  0.0000E+00  0.2000E-01
    -26.978  0.0000E+00  0.2000E-01
    -26.845  0.0000E+00  0.2000E-01
    -26.711  0.0000E+00  0.2000E-01
    -26.578  0.0000E+00  0.2000E-01
    -26.445  0.0000E+00  0.2000E-01
    -26.312  0.0000E+00  0.2000E-01
    -26.179  0.0000E+00  0.2000E-01
    -26.045  0.0000E+00  0.2000E-01
    -25.912  0.0000E+00  0.2000E-01
    -25.779  0.0000E+00  0.2000E-01
    -25.646  0.0000E+00  0.2000E-01
    -25.513  0.0000E+00  0.2000E-01
    -25.379  0.0000E+00  0.2000E-01
    -25.246  0.0000E+00  0.2000E-01
    -25.113  0.0000E+00  0.2000E-01
    -24.980  0.0000E+00  0.2000E-01
    -24.847  0.0000E+00  0.2000E-01
    -24.713  0.0000E+00  0.2000E-01
    -24.580  0.0000E+00  0.2000E-01
    -24.447  0.0000E+00  0.2000E-01
    -24.314  0.0000E+00  0.2000E-01
    -24.181  0.0000E+00  0.2000E-01
    -24.047  0.0000E+00  0.2000E-01
    -23.914  0.0000E+00  0.2000E-01
    -23.781  0.0000E+00  0.2000E-01
    -23.648  0.0000E+00  0.2000E-01
    -23.515  0.0000E+00  0.2000E-01
    -23.381  0.0000E+00  0.2000E-01
    -23.248  0.0000E+00  0.2000E-01
    -23.115  0.0000E+00  0.2000E-01
    -22.982  0.0000E+00  0.2000E-01
    -22.849  0.0000E+00  0.2000E-01
    -22.715  0.0000E+00  0.2000E-01
    -22.582  0.0000E+00  0.2000E-01
    -22.449  0.4162E-08  0.2000E-01
    -22.316  0.2071E-01  0.2276E-01
    -22.183  0.8443E+00  0.1352E+00
    -22.049  0.3593E-01  0.1400E+00
    -21.916  0.1706E-07  0.1400E+00
    -21.783  0.0000E+00  0.1400E+00
    -21.650  0.0000E+00  0.1400E+00
    -21.517  0.0000E+00  0.1400E+00
    -21.383  0.0000E+00  0.1400E+00
    -21.250  0.0000E+00  0.1400E+00
    -21.117  0.0000E+00  0.1400E+00
    -20.984  0.0000E+00  0.1400E+00
    -20.851  0.0000E+00  0.1400E+00
    -20.717  0.0000E+00  0.1400E+00
    -20.584  0.0000E+00  0.1400E+00
    -20.451  0.0000E+00  0.1400E+00
    -20.318  0.0000E+00  0.1400E+00
    -20.185  0.0000E+00  0.1400E+00
    -20.051  0.0000E+00  0.1400E+00
    -19.918  0.0000E+00  0.1400E+00
    -19.785  0.0000E+00  0.1400E+00
    -19.652  0.0000E+00  0.1400E+00
    -19.519  0.0000E+00  0.1400E+00
    -19.385  0.6474E-12  0.1400E+00
    -19.252  0.3743E-03  0.1400E+00
    -19.119  0.5113E+00  0.2082E+00
    -18.986  0.2390E+00  0.2400E+00
    -18.853  0.8557E-05  0.2400E+00
    -18.719  0.0000E+00  0.2400E+00
    -18.586  0.0000E+00  0.2400E+00
    -18.453  0.0000E+00  0.2400E+00
    -18.320  0.0000E+00  0.2400E+00
    -18.187  0.0000E+00  0.2400E+00
    -18.053  0.0000E+00  0.2400E+00
    -17.920  0.0000E+00  0.2400E+00
    -17.787  0.0000E+00  0.2400E+00
    -17.654  0.0000E+00  0.2400E+00
    -17.521  0.0000E+00  0.2400E+00
    -17.387  0.0000E+00  0.2400E+00
    -17.254  0.0000E+00  0.2400E+00
    -17.121  0.0000E+00  0.2400E+00
    -16.988  0.0000E+00  0.2400E+00
    -16.855  0.0000E+00  0.2400E+00
    -16.721  0.0000E+00  0.2400E+00
    -16.588  0.0000E+00  0.2400E+00
    -16.455  0.0000E+00  0.2400E+00
    -16.322  0.0000E+00  0.2400E+00
    -16.189  0.0000E+00  0.2400E+00
    -16.055  0.0000E+00  0.2400E+00
    -15.922  0.0000E+00  0.2400E+00
    -15.789  0.0000E+00  0.2400E+00
    -15.656  0.0000E+00  0.2400E+00
    -15.523  0.0000E+00  0.2400E+00
    -15.389  0.0000E+00  0.2400E+00
    -15.256  0.0000E+00  0.2400E+00
    -15.123  0.0000E+00  0.2400E+00
    -14.990  0.0000E+00  0.2400E+00
    -14.857  0.0000E+00  0.2400E+00
    -14.723  0.0000E+00  0.2400E+00
    -14.590  0.0000E+00  0.2400E+00
    -14.457  0.0000E+00  0.2400E+00
    -14.324  0.0000E+00  0.2400E+00
    -14.191  0.0000E+00  0.2400E+00
    -14.057  0.0000E+00  0.2400E+00
    -13.924  0.0000E+00  0.2400E+00
    -13.791  0.0000E+00  0.2400E+00
    -13.658  0.0000E+00  0.2400E+00
    -13.525  0.0000E+00  0.2400E+00
    -13.391  0.0000E+00  0.2400E+00
    -13.258  0.0000E+00  0.2400E+00
    -13.125  0.0000E+00  0.2400E+00
    -12.992  0.0000E+00  0.2400E+00
    -12.859  0.0000E+00  0.2400E+00
    -12.725  0.9899E-07  0.2400E+00
    -12.592  0.4177E-01  0.2456E+00
    -12.459  0.4051E+00  0.2995E+00
    -12.326  0.3616E-02  0.3000E+00
    -12.193  0.1762E-09  0.3000E+00
    -12.059  0.0000E+00  0.3000E+00
    -11.926  0.0000E+00  0.3000E+00
    -11.793  0.0000E+00  0.3000E+00
    -11.660  0.0000E+00  0.3000E+00
    -11.527  0.0000E+00  0.3000E+00
    -11.393  0.0000E+00  0.3000E+00
    -11.260  0.0000E+00  0.3000E+00
    -11.127  0.0000E+00  0.3000E+00
    -10.994  0.0000E+00  0.3000E+00
    -10.861  0.0000E+00  0.3000E+00
    -10.727  0.0000E+00  0.3000E+00
    -10.594  0.0000E+00  0.3000E+00
    -10.461  0.0000E+00  0.3000E+00
    -10.328  0.0000E+00  0.3000E+00
    -10.195  0.0000E+00  0.3000E+00
    -10.061  0.0000E+00  0.3000E+00
     -9.928  0.0000E+00  0.3000E+00
     -9.795  0.0000E+00  0.3000E+00
     -9.662  0.0000E+00  0.3000E+00
     -9.529  0.0000E+00  0.3000E+00
     -9.395  0.0000E+00  0.3000E+00
     -9.262  0.0000E+00  0.3000E+00
     -9.129  0.0000E+00  0.3000E+00
     -8.996  0.0000E+00  0.3000E+00
     -8.863  0.0000E+00  0.3000E+00
     -8.729  0.0000E+00  0.3000E+00
     -8.596  0.0000E+00  0.3000E+00
     -8.463  0.0000E+00  0.3000E+00
     -8.330  0.0000E+00  0.3000E+00
     -8.197  0.0000E+00  0.3000E+00
     -8.063  0.0000E+00  0.3000E+00
     -7.930  0.0000E+00  0.3000E+00
     -7.797  0.0000E+00  0.3000E+00
     -7.664  0.0000E+00  0.3000E+00
     -7.531  0.2787E-09  0.3000E+00
     -7.397  0.1818E-03  0.3000E+00
     -7.264  0.1703E-01  0.3023E+00
     -7.131  0.1155E+00  0.3177E+00
     -6.998  0.1745E-01  0.3200E+00
     -6.865  0.2183E-06  0.3200E+00
     -6.731  0.0000E+00  0.3200E+00
     -6.598  0.0000E+00  0.3200E+00
     -6.465  0.0000E+00  0.3200E+00
     -6.332  0.0000E+00  0.3200E+00
     -6.199  0.0000E+00  0.3200E+00
     -6.065  0.0000E+00  0.3200E+00
     -5.932  0.0000E+00  0.3200E+00
     -5.799  0.0000E+00  0.3200E+00
     -5.666  0.0000E+00  0.3200E+00
     -5.533  0.0000E+00  0.3200E+00
     -5.399  0.0000E+00  0.3200E+00
     -5.266  0.0000E+00  0.3200E+00
     -5.133  0.0000E+00  0.3200E+00
     -5.000  0.0000E+00  0.3200E+00
     -4.867  0.0000E+00  0.3200E+00
     -4.733  0.0000E+00  0.3200E+00
     -4.600  0.0000E+00  0.3200E+00
     -4.467  0.0000E+00  0.3200E+00
     -4.334  0.0000E+00  0.3200E+00
     -4.201  0.0000E+00  0.3200E+00
     -4.067  0.0000E+00  0.3200E+00
     -3.934  0.0000E+00  0.3200E+00
     -3.801  0.0000E+00  0.3200E+00
     -3.668  0.0000E+00  0.3200E+00
     -3.535  0.0000E+00  0.3200E+00
     -3.401  0.0000E+00  0.3200E+00
     -3.268  0.0000E+00  0.3200E+00
     -3.135  0.0000E+00  0.3200E+00
     -3.002  0.0000E+00  0.3200E+00
     -2.869  0.0000E+00  0.3200E+00
     -2.735  0.0000E+00  0.3200E+00
     -2.602  0.0000E+00  0.3200E+00
     -2.469  0.0000E+00  0.3200E+00
     -2.336  0.0000E+00  0.3200E+00
     -2.203  0.0000E+00  0.3200E+00
     -2.069  0.0000E+00  0.3200E+00
     -1.936  0.0000E+00  0.3200E+00
     -1.803  0.0000E+00  0.3200E+00
     -1.670  0.0000E+00  0.3200E+00
     -1.537  0.0000E+00  0.3200E+00
     -1.403  0.0000E+00  0.3200E+00
     -1.270  0.0000E+00  0.3200E+00
     -1.137  0.0000E+00  0.3200E+00
     -1.004  0.0000E+00  0.3200E+00
     -0.871  0.0000E+00  0.3200E+00
     -0.737  0.0000E+00  0.3200E+00
     -0.604  0.0000E+00  0.3200E+00
     -0.471  0.1302E-18  0.3200E+00
     -0.338  0.4930E-08  0.3200E+00
     -0.205  0.2892E-03  0.3200E+00
     -0.071  0.5152E-02  0.3207E+00
      0.062  0.1363E-01  0.3225E+00
      0.195  0.3730E-01  0.3275E+00
      0.328  0.4808E-01  0.3339E+00
      0.461  0.2592E-01  0.3374E+00
      0.595  0.6424E-02  0.3382E+00
      0.728  0.1643E-01  0.3404E+00
      0.861  0.2477E-01  0.3437E+00
      0.994  0.6003E-02  0.3445E+00
      1.127  0.2865E-01  0.3483E+00
      1.261  0.2837E-01  0.3521E+00
      1.394  0.3787E-01  0.3571E+00
      1.527  0.5567E-01  0.3646E+00
      1.660  0.4875E-01  0.3711E+00
      1.793  0.3545E-01  0.3758E+00
      1.927  0.1914E-01  0.3783E+00
      2.060  0.9263E-02  0.3796E+00
      2.193  0.3457E-02  0.3800E+00
      2.326  0.1216E-03  0.3800E+00
      2.459  0.5189E-09  0.3800E+00
      2.593  0.0000E+00  0.3800E+00
      2.726  0.6956E-11  0.3800E+00
      2.859  0.4721E-04  0.3800E+00
      2.992  0.2198E-02  0.3803E+00
      3.125  0.7024E-03  0.3804E+00
      3.259  0.1161E-02  0.3806E+00
      3.392  0.2127E-02  0.3809E+00
      3.525  0.7691E-02  0.3819E+00
      3.658  0.1136E-01  0.3834E+00
      3.791  0.1263E-01  0.3851E+00
      3.925  0.3111E-01  0.3892E+00
      4.058  0.2043E-01  0.3920E+00
      4.191  0.1836E-01  0.3944E+00
      4.324  0.3684E-01  0.3993E+00
      4.457  0.2527E-01  0.4027E+00
      4.591  0.1618E-01  0.4048E+00
      4.724  0.6834E-02  0.4057E+00
      4.857  0.2552E-02  0.4061E+00
      4.990  0.1837E-01  0.4085E+00
      5.123  0.4341E-01  0.4143E+00
      5.257  0.2125E-01  0.4171E+00
      5.390  0.5493E-01  0.4245E+00
      5.523  0.2850E-01  0.4282E+00
      5.656  0.3453E-01  0.4328E+00
      5.789  0.3433E-01  0.4374E+00
      5.923  0.1659E-01  0.4396E+00
      6.056  0.1520E-01  0.4417E+00
      6.189  0.2006E-01  0.4443E+00
      6.322  0.3268E-01  0.4487E+00
      6.455  0.4437E-01  0.4546E+00
      6.589  0.1592E-01  0.4567E+00
      6.722  0.3621E-02  0.4572E+00
      6.855  0.3564E-02  0.4577E+00
      6.988  0.7480E-02  0.4587E+00
      7.121  0.8656E-02  0.4598E+00
      7.255  0.5607E-03  0.4599E+00
      7.388  0.7975E-03  0.4600E+00
      7.521  0.7262E-05  0.4600E+00
      7.654  0.3102E-12  0.4600E+00
      7.787  0.0000E+00  0.4600E+00
      7.921  0.0000E+00  0.4600E+00
      8.054  0.0000E+00  0.4600E+00
      8.187  0.0000E+00  0.4600E+00
      8.320  0.0000E+00  0.4600E+00
      8.453  0.0000E+00  0.4600E+00
      8.587  0.0000E+00  0.4600E+00
      8.720  0.0000E+00  0.4600E+00
      8.853  0.0000E+00  0.4600E+00
      8.986  0.0000E+00  0.4600E+00
      9.119  0.0000E+00  0.4600E+00
