    4    4  100    1
  0.3006380E+02  0.5540381E-09  0.5540381E-09  0.5540381E-09  0.5000000E-15
  1.000000000000000E-004
  CAR 
 unknown system                          
     38     29     23
 
  0.0000000E+00  0.0000000E+00  0.0000000E+00  0.1953125E-02
    1      -29.024293   1.000000
    2      -22.249195   1.000000
    3      -22.249188   1.000000
    4      -22.249188   1.000000
    5      -22.240661   1.000000
    6      -22.240655   1.000000
    7      -22.240655   1.000000
    8      -19.136991   1.000000
    9      -19.136990   1.000000
   10      -19.136990   1.000000
   11      -19.133871   1.000000
   12      -19.133871   1.000000
   13      -12.539030   1.000000
   14      -12.539030   1.000000
   15      -12.539029   1.000000
   16       -7.361096   1.000000
   17        2.028784   0.999969
   18        2.154367   0.673425
   19        2.154371   0.673381
   20        2.154371   0.673381
   21        4.818979   0.000000
   22        4.818979   0.000000
   23        4.818982   0.000000
 
  0.1250000E+00  0.0000000E+00  0.0000000E+00  0.1562500E-01
    1      -29.024263   1.000000
    2      -22.248860   1.000000
    3      -22.248854   1.000000
    4      -22.248829   1.000000
    5      -22.240992   1.000000
    6      -22.240978   1.000000
    7      -22.240973   1.000000
    8      -19.137068   1.000000
    9      -19.136940   1.000000
   10      -19.136939   1.000000
   11      -19.133864   1.000000
   12      -19.133864   1.000000
   13      -12.541762   1.000000
   14      -12.539045   1.000000
   15      -12.539044   1.000000
   16       -7.334485   1.000000
   17        1.205447   1.000000
   18        2.063444   0.998741
   19        2.063448   0.998740
   20        2.931485   0.000000
   21        4.909418   0.000000
   22        4.975128   0.000000
   23        4.975131   0.000000
 
  0.2500000E+00  0.0000000E+00  0.0000000E+00  0.1562500E-01
    1      -29.024192   1.000000
    2      -22.247946   1.000000
    3      -22.247940   1.000000
    4      -22.247863   1.000000
    5      -22.241941   1.000000
    6      -22.241920   1.000000
    7      -22.241914   1.000000
    8      -19.137317   1.000000
    9      -19.136877   1.000000
   10      -19.136876   1.000000
   11      -19.133887   1.000000
   12      -19.133887   1.000000
   13      -12.548309   1.000000
   14      -12.539138   1.000000
   15      -12.539137   1.000000
   16       -7.268940   1.000000
   17        0.473052   1.000000
   18        1.874415   1.000000
   19        1.874419   1.000000
   20        3.365029   0.000000
   21        5.320326   0.000000
   22        5.320329   0.000000
   23        5.509653   0.000000
 
  0.3750000E+00  0.0000000E+00  0.0000000E+00  0.1562500E-01
    1      -29.024120   1.000000
    2      -22.246590   1.000000
    3      -22.246585   1.000000
    4      -22.246503   1.000000
    5      -22.243299   1.000000
    6      -22.243293   1.000000
    7      -22.243282   1.000000
    8      -19.137552   1.000000
    9      -19.136820   1.000000
   10      -19.136820   1.000000
   11      -19.133886   1.000000
   12      -19.133886   1.000000
   13      -12.554711   1.000000
   14      -12.539223   1.000000
   15      -12.539222   1.000000
   16       -7.201435   1.000000
   17       -0.010734   1.000000
   18        1.714875   1.000000
   19        1.714879   1.000000
   20        3.465649   0.000000
   21        5.636024   0.000000
   22        5.636028   0.000000
   23        6.415737   0.000000
 
  0.5000000E+00  0.0000000E+00  0.0000000E+00  0.7812500E-02
    1      -29.024088   1.000000
    2      -22.245272   1.000000
    3      -22.245189   1.000000
    4      -22.245183   1.000000
    5      -22.244693   1.000000
    6      -22.244687   1.000000
    7      -22.244510   1.000000
    8      -19.137648   1.000000
    9      -19.136795   1.000000
   10      -19.136795   1.000000
   11      -19.133877   1.000000
   12      -19.133876   1.000000
   13      -12.557320   1.000000
   14      -12.539242   1.000000
   15      -12.539241   1.000000
   16       -7.172850   1.000000
   17       -0.180345   1.000000
   18        1.655029   1.000000
   19        1.655033   1.000000
   20        3.487386   0.000000
   21        5.763275   0.000000
   22        5.763280   0.000000
   23        6.375889   0.000000
 
  0.1250000E+00  0.1250000E+00  0.0000000E+00  0.1171875E-01
    1      -29.024253   1.000000
    2      -22.249308   1.000000
    3      -22.249304   1.000000
    4      -22.247642   1.000000
    5      -22.242158   1.000000
    6      -22.240537   1.000000
    7      -22.240532   1.000000
    8      -19.137139   1.000000
    9      -19.136910   1.000000
   10      -19.136909   1.000000
   11      -19.133927   1.000000
   12      -19.133801   1.000000
   13      -12.541488   1.000000
   14      -12.539622   1.000000
   15      -12.539621   1.000000
   16       -7.326578   1.000000
   17        1.131972   1.000000
   18        1.985828   1.000000
   19        1.985831   1.000000
   20        3.139772   0.000000
   21        4.520660   0.000000
   22        5.221336   0.000000
   23        5.221338   0.000000
 
  0.2500000E+00  0.1250000E+00  0.0000000E+00  0.4687500E-01
    1      -29.024197   1.000000
    2      -22.249096   1.000000
    3      -22.249083   1.000000
    4      -22.246028   1.000000
    5      -22.243756   1.000000
    6      -22.240778   1.000000
    7      -22.240776   1.000000
    8      -19.137336   1.000000
    9      -19.136878   1.000000
   10      -19.136844   1.000000
   11      -19.133957   1.000000
   12      -19.133767   1.000000
   13      -12.546203   1.000000
   14      -12.540100   1.000000
   15      -12.539710   1.000000
   16       -7.276376   1.000000
   17        0.617078   1.000000
   18        1.788036   1.000000
   19        1.817882   1.000000
   20        3.608444   0.000000
   21        4.539788   0.000000
   22        5.621680   0.000000
   23        5.624242   0.000000
 
  0.3750000E+00  0.1250000E+00  0.0000000E+00  0.4687500E-01
    1      -29.024127   1.000000
    2      -22.248256   1.000000
    3      -22.248225   1.000000
    4      -22.245545   1.000000
    5      -22.244234   1.000000
    6      -22.241635   1.000000
    7      -22.241626   1.000000
    8      -19.137508   1.000000
    9      -19.136874   1.000000
   10      -19.136781   1.000000
   11      -19.133930   1.000000
   12      -19.133774   1.000000
   13      -12.552214   1.000000
   14      -12.540189   1.000000
   15      -12.540063   1.000000
   16       -7.211911   1.000000
   17        0.159863   1.000000
   18        1.539760   1.000000
   19        1.670615   1.000000
   20        3.785030   0.000000
   21        5.090010   0.000000
   22        5.760436   0.000000
   23        5.890705   0.000000
 
  0.5000000E+00  0.1250000E+00  0.0000000E+00  0.4687500E-01
    1      -29.024083   1.000000
    2      -22.247317   1.000000
    3      -22.246908   1.000000
    4      -22.246810   1.000000
    5      -22.242998   1.000000
    6      -22.242937   1.000000
    7      -22.242588   1.000000
    8      -19.137587   1.000000
    9      -19.136899   1.000000
   10      -19.136763   1.000000
   11      -19.133879   1.000000
   12      -19.133825   1.000000
   13      -12.555767   1.000000
   14      -12.540747   1.000000
   15      -12.539842   1.000000
   16       -7.171231   1.000000
   17       -0.071939   1.000000
   18        1.374677   1.000000
   19        1.610811   1.000000
   20        3.864893   0.000000
   21        5.266675   0.000000
   22        5.953074   0.000000
   23        6.312437   0.000000
 
 -0.3750000E+00  0.1250000E+00  0.0000000E+00  0.4687500E-01
    1      -29.024092   1.000000
    2      -22.248559   1.000000
    3      -22.245313   1.000000
    4      -22.245280   1.000000
    5      -22.244603   1.000000
    6      -22.244485   1.000000
    7      -22.241301   1.000000
    8      -19.137535   1.000000
    9      -19.136899   1.000000
   10      -19.136785   1.000000
   11      -19.133886   1.000000
   12      -19.133825   1.000000
   13      -12.554955   1.000000
   14      -12.541298   1.000000
   15      -12.539256   1.000000
   16       -7.179677   1.000000
   17       -0.023279   1.000000
   18        1.352622   1.000000
   19        1.661386   1.000000
   20        3.898070   0.000000
   21        5.323030   0.000000
   22        5.767928   0.000000
   23        6.418170   0.000000
 
 -0.2500000E+00  0.1250000E+00  0.0000000E+00  0.4687500E-01
    1      -29.024149   1.000000
    2      -22.249326   1.000000
    3      -22.246343   1.000000
    4      -22.246249   1.000000
    5      -22.243550   1.000000
    6      -22.243525   1.000000
    7      -22.240538   1.000000
    8      -19.137389   1.000000
    9      -19.136897   1.000000
   10      -19.136849   1.000000
   11      -19.133938   1.000000
   12      -19.133802   1.000000
   13      -12.550358   1.000000
   14      -12.541259   1.000000
   15      -12.538794   1.000000
   16       -7.231891   1.000000
   17        0.288712   1.000000
   18        1.493136   1.000000
   19        1.806345   1.000000
   20        3.823120   0.000000
   21        5.289531   0.000000
   22        5.396487   0.000000
   23        5.693299   0.000000
 
 -0.1250000E+00  0.1250000E+00  0.0000000E+00  0.2343750E-01
    1      -29.024221   1.000000
    2      -22.249437   1.000000
    3      -22.247823   1.000000
    4      -22.247764   1.000000
    5      -22.242053   1.000000
    6      -22.242033   1.000000
    7      -22.240416   1.000000
    8      -19.137217   1.000000
    9      -19.136919   1.000000
   10      -19.136910   1.000000
   11      -19.133940   1.000000
   12      -19.133817   1.000000
   13      -12.544866   1.000000
   14      -12.540354   1.000000
   15      -12.538708   1.000000
   16       -7.295829   1.000000
   17        0.769754   1.000000
   18        1.783251   1.000000
   19        1.979583   1.000000
   20        3.442671   0.000000
   21        4.867972   0.000000
   22        5.060486   0.000000
   23        5.505640   0.000000
 
  0.2500000E+00  0.2500000E+00  0.0000000E+00  0.1171875E-01
    1      -29.024161   1.000000
    2      -22.249614   1.000000
    3      -22.249610   1.000000
    4      -22.245762   1.000000
    5      -22.243943   1.000000
    6      -22.240270   1.000000
    7      -22.240266   1.000000
    8      -19.137555   1.000000
    9      -19.136755   1.000000
   10      -19.136754   1.000000
   11      -19.133966   1.000000
   12      -19.133640   1.000000
   13      -12.546808   1.000000
   14      -12.541124   1.000000
   15      -12.541123   1.000000
   16       -7.249971   1.000000
   17        0.494658   1.000000
   18        1.685876   1.000000
   19        1.685878   1.000000
   20        3.853638   0.000000
   21        4.015065   0.000000
   22        6.005425   0.000000
   23        6.186054   0.000000
 
  0.3750000E+00  0.2500000E+00  0.0000000E+00  0.4687500E-01
    1      -29.024109   1.000000
    2      -22.249437   1.000000
    3      -22.249436   1.000000
    4      -22.247650   1.000000
    5      -22.242044   1.000000
    6      -22.240495   1.000000
    7      -22.240478   1.000000
    8      -19.137729   1.000000
    9      -19.136757   1.000000
   10      -19.136703   1.000000
   11      -19.133948   1.000000
   12      -19.133627   1.000000
   13      -12.550257   1.000000
   14      -12.542032   1.000000
   15      -12.541625   1.000000
   16       -7.204746   1.000000
   17        0.277174   1.000000
   18        1.409407   1.000000
   19        1.564659   1.000000
   20        3.902193   0.000000
   21        4.262455   0.000000
   22        5.795225   0.000000
   23        6.458126   0.000000
 
  0.5000000E+00  0.2500000E+00  0.0000000E+00  0.4687500E-01
    1      -29.024067   1.000000
    2      -22.249273   1.000000
    3      -22.248560   1.000000
    4      -22.248435   1.000000
    5      -22.241377   1.000000
    6      -22.241337   1.000000
    7      -22.240584   1.000000
    8      -19.137685   1.000000
    9      -19.136903   1.000000
   10      -19.136676   1.000000
   11      -19.133876   1.000000
   12      -19.133682   1.000000
   13      -12.552557   1.000000
   14      -12.543820   1.000000
   15      -12.541283   1.000000
   16       -7.167039   1.000000
   17        0.170335   1.000000
   18        1.024223   1.000000
   19        1.512376   1.000000
   20        3.994939   0.000000
   21        5.113735   0.000000
   22        5.508902   0.000000
   23        6.456285   0.000000
 
 -0.3750000E+00  0.2500000E+00  0.0000000E+00  0.4687500E-01
    1      -29.024061   1.000000
    2      -22.250016   1.000000
    3      -22.247125   1.000000
    4      -22.247114   1.000000
    5      -22.242787   1.000000
    6      -22.242693   1.000000
    7      -22.239809   1.000000
    8      -19.137441   1.000000
    9      -19.137111   1.000000
   10      -19.136701   1.000000
   11      -19.133791   1.000000
   12      -19.133786   1.000000
   13      -12.552351   1.000000
   14      -12.545516   1.000000
   15      -12.540304   1.000000
   16       -7.159419   1.000000
   17        0.184262   1.000000
   18        0.822850   1.000000
   19        1.551124   1.000000
   20        4.258728   0.000000
   21        5.292608   0.000000
   22        6.154154   0.000000
   23        6.232377   0.000000
 
 -0.2500000E+00  0.2500000E+00  0.0000000E+00  0.2343750E-01
    1      -29.024094   1.000000
    2      -22.250049   1.000000
    3      -22.245384   1.000000
    4      -22.245356   1.000000
    5      -22.244527   1.000000
    6      -22.244415   1.000000
    7      -22.239805   1.000000
    8      -19.137355   1.000000
    9      -19.137077   1.000000
   10      -19.136772   1.000000
   11      -19.133894   1.000000
   12      -19.133759   1.000000
   13      -12.551379   1.000000
   14      -12.544549   1.000000
   15      -12.539278   1.000000
   16       -7.186482   1.000000
   17        0.207965   1.000000
   18        1.012717   1.000000
   19        1.667793   1.000000
   20        4.415462   0.000000
   21        5.281682   0.000000
   22        5.518184   0.000000
   23        5.773758   0.000000
 
  0.3750000E+00  0.3750000E+00  0.0000000E+00  0.1171875E-01
    1      -29.024079   1.000000
    2      -22.249936   1.000000
    3      -22.249932   1.000000
    4      -22.249378   1.000000
    5      -22.240265   1.000000
    6      -22.240019   1.000000
    7      -22.240015   1.000000
    8      -19.137994   1.000000
    9      -19.136622   1.000000
   10      -19.136621   1.000000
   11      -19.133910   1.000000
   12      -19.133525   1.000000
   13      -12.551276   1.000000
   14      -12.542669   1.000000
   15      -12.542668   1.000000
   16       -7.184131   1.000000
   17        0.222736   1.000000
   18        1.465896   1.000000
   19        1.465898   1.000000
   20        3.646675   0.000000
   21        3.769181   0.000000
   22        6.408498   0.000000
   23        6.999850   0.000000
 
  0.5000000E+00  0.3750000E+00  0.0000000E+00  0.4687500E-01
    1      -29.024052   1.000000
    2      -22.250499   1.000000
    3      -22.249669   1.000000
    4      -22.249603   1.000000
    5      -22.240299   1.000000
    6      -22.240279   1.000000
    7      -22.239227   1.000000
    8      -19.138014   1.000000
    9      -19.136682   1.000000
   10      -19.136597   1.000000
   11      -19.133863   1.000000
   12      -19.133534   1.000000
   13      -12.551994   1.000000
   14      -12.544256   1.000000
   15      -12.542719   1.000000
   16       -7.162397   1.000000
   17        0.224402   1.000000
   18        1.145136   1.000000
   19        1.423544   1.000000
   20        3.671920   0.000000
   21        4.045552   0.000000
   22        6.502279   0.000000
   23        7.048700   0.000000
 
 -0.3750000E+00  0.3750000E+00  0.0000000E+00  0.2343750E-01
    1      -29.024046   1.000000
    2      -22.250713   1.000000
    3      -22.248680   1.000000
    4      -22.248627   1.000000
    5      -22.241269   1.000000
    6      -22.241208   1.000000
    7      -22.239069   1.000000
    8      -19.137747   1.000000
    9      -19.136911   1.000000
   10      -19.136622   1.000000
   11      -19.133812   1.000000
   12      -19.133641   1.000000
   13      -12.550149   1.000000
   14      -12.547719   1.000000
   15      -12.541743   1.000000
   16       -7.152269   1.000000
   17        0.396985   1.000000
   18        0.635135   1.000000
   19        1.456096   1.000000
   20        3.892472   0.000000
   21        4.999762   0.000000
   22        6.182737   0.000000
   23        6.712989   0.000000
 
  0.5000000E+00  0.5000000E+00  0.0000000E+00  0.5859375E-02
    1      -29.024046   1.000000
    2      -22.250890   1.000000
    3      -22.250054   1.000000
    4      -22.250050   1.000000
    5      -22.239920   1.000000
    6      -22.239916   1.000000
    7      -22.238735   1.000000
    8      -19.138167   1.000000
    9      -19.136562   1.000000
   10      -19.136562   1.000000
   11      -19.133852   1.000000
   12      -19.133464   1.000000
   13      -12.552884   1.000000
   14      -12.543314   1.000000
   15      -12.543313   1.000000
   16       -7.160345   1.000000
   17        0.174341   1.000000
   18        1.389079   1.000000
   19        1.389082   1.000000
   20        3.516580   0.000000
   21        3.556593   0.000000
   22        7.111672   0.000000
   23        7.303002   0.000000
 
  0.3750000E+00  0.2500000E+00  0.1250000E+00  0.4687500E-01
    1      -29.024141   1.000000
    2      -22.249744   1.000000
    3      -22.248114   1.000000
    4      -22.245649   1.000000
    5      -22.244110   1.000000
    6      -22.241773   1.000000
    7      -22.240133   1.000000
    8      -19.137487   1.000000
    9      -19.136866   1.000000
   10      -19.136783   1.000000
   11      -19.133955   1.000000
   12      -19.133716   1.000000
   13      -12.549165   1.000000
   14      -12.542122   1.000000
   15      -12.539720   1.000000
   16       -7.228925   1.000000
   17        0.355804   1.000000
   18        1.431453   1.000000
   19        1.708055   1.000000
   20        4.089272   0.000000
   21        4.509942   0.000000
   22        5.570742   0.000000
   23        6.003265   0.000000
 
  0.5000000E+00  0.2500000E+00  0.1250000E+00  0.9375000E-01
    1      -29.024086   1.000000
    2      -22.249678   1.000000
    3      -22.247425   1.000000
    4      -22.246661   1.000000
    5      -22.243246   1.000000
    6      -22.242330   1.000000
    7      -22.240209   1.000000
    8      -19.137526   1.000000
    9      -19.136985   1.000000
   10      -19.136719   1.000000
   11      -19.133897   1.000000
   12      -19.133731   1.000000
   13      -12.552304   1.000000
   14      -12.543399   1.000000
   15      -12.540227   1.000000
   16       -7.180733   1.000000
   17        0.160866   1.000000
   18        1.126124   1.000000
   19        1.554990   1.000000
   20        4.320581   0.000000
   21        5.044335   0.000000
   22        5.332483   0.000000
   23        6.325962   0.000000
 
 -0.3750000E+00  0.2500000E+00  0.1250000E+00  0.4687500E-01
    1      -29.024063   1.000000
    2      -22.249158   1.000000
    3      -22.248554   1.000000
    4      -22.245102   1.000000
    5      -22.244810   1.000000
    6      -22.241035   1.000000
    7      -22.240907   1.000000
    8      -19.137487   1.000000
    9      -19.137078   1.000000
   10      -19.136693   1.000000
   11      -19.133823   1.000000
   12      -19.133790   1.000000
   13      -12.553663   1.000000
   14      -12.543645   1.000000
   15      -12.540627   1.000000
   16       -7.160536   1.000000
   17        0.089678   1.000000
   18        1.014706   1.000000
   19        1.489734   1.000000
   20        4.399883   0.000000
   21        4.921016   0.000000
   22        6.127961   0.000000
   23        6.259818   0.000000
 
  0.5000000E+00  0.3750000E+00  0.1250000E+00  0.4687500E-01
    1      -29.024069   1.000000
    2      -22.250134   1.000000
    3      -22.249181   1.000000
    4      -22.248440   1.000000
    5      -22.241507   1.000000
    6      -22.240442   1.000000
    7      -22.239854   1.000000
    8      -19.137799   1.000000
    9      -19.136820   1.000000
   10      -19.136631   1.000000
   11      -19.133883   1.000000
   12      -19.133607   1.000000
   13      -12.551273   1.000000
   14      -12.543929   1.000000
   15      -12.542147   1.000000
   16       -7.173507   1.000000
   17        0.242795   1.000000
   18        1.175194   1.000000
   19        1.369693   1.000000
   20        4.188279   0.000000
   21        4.241930   0.000000
   22        5.729859   0.000000
   23        6.933160   0.000000
 
 -0.3750000E+00  0.3750000E+00  0.1250000E+00  0.9375000E-01
    1      -29.024047   1.000000
    2      -22.250483   1.000000
    3      -22.249618   1.000000
    4      -22.246916   1.000000
    5      -22.243032   1.000000
    6      -22.240002   1.000000
    7      -22.239510   1.000000
    8      -19.137621   1.000000
    9      -19.137053   1.000000
   10      -19.136604   1.000000
   11      -19.133808   1.000000
   12      -19.133666   1.000000
   13      -12.550641   1.000000
   14      -12.546298   1.000000
   15      -12.542411   1.000000
   16       -7.153556   1.000000
   17        0.346585   1.000000
   18        0.782650   1.000000
   19        1.285461   1.000000
   20        4.329994   0.000000
   21        5.070481   0.000000
   22        5.514097   0.000000
   23        6.369583   0.000000
 
 -0.2500000E+00  0.3750000E+00  0.1250000E+00  0.4687500E-01
    1      -29.024053   1.000000
    2      -22.250445   1.000000
    3      -22.248883   1.000000
    4      -22.245100   1.000000
    5      -22.244835   1.000000
    6      -22.240838   1.000000
    7      -22.239466   1.000000
    8      -19.137347   1.000000
    9      -19.137286   1.000000
   10      -19.136644   1.000000
   11      -19.133804   1.000000
   12      -19.133731   1.000000
   13      -12.550391   1.000000
   14      -12.547013   1.000000
   15      -12.541361   1.000000
   16       -7.156568   1.000000
   17        0.336259   1.000000
   18        0.715954   1.000000
   19        1.379836   1.000000
   20        4.632591   0.000000
   21        5.221577   0.000000
   22        5.376177   0.000000
   23        6.194564   0.000000
 
 -0.3750000E+00  0.5000000E+00  0.1250000E+00  0.2343750E-01
    1      -29.024043   1.000000
    2      -22.250926   1.000000
    3      -22.250011   1.000000
    4      -22.248564   1.000000
    5      -22.241399   1.000000
    6      -22.239759   1.000000
    7      -22.238897   1.000000
    8      -19.137928   1.000000
    9      -19.136792   1.000000
   10      -19.136561   1.000000
   11      -19.133823   1.000000
   12      -19.133552   1.000000
   13      -12.551451   1.000000
   14      -12.544689   1.000000
   15      -12.543630   1.000000
   16       -7.154210   1.000000
   17        0.286755   1.000000
   18        1.085408   1.000000
   19        1.185445   1.000000
   20        4.074173   0.000000
   21        4.081229   0.000000
   22        6.422823   0.000000
   23        6.729268   0.000000
 
 -0.2500000E+00  0.5000000E+00  0.2500000E+00  0.1171875E-01
    1      -29.024040   1.000000
    2      -22.250960   1.000000
    3      -22.249981   1.000000
    4      -22.244987   1.000000
    5      -22.244985   1.000000
    6      -22.239484   1.000000
    7      -22.239178   1.000000
    8      -19.137367   1.000000
    9      -19.137367   1.000000
   10      -19.136567   1.000000
   11      -19.133763   1.000000
   12      -19.133703   1.000000
   13      -12.548052   1.000000
   14      -12.548052   1.000000
   15      -12.543961   1.000000
   16       -7.148035   1.000000
   17        0.612761   1.000000
   18        0.612765   1.000000
   19        1.022774   1.000000
   20        4.934140   0.000000
   21        5.286812   0.000000
   22        5.286821   0.000000
   23        5.500597   0.000000
