       N       E                     dE             d eps       ncg     rms          rms(c)
DAV:   1     0.385567112201E+03    0.38557E+03   -0.19987E+04  1342   0.177E+03
DAV:   2     0.233226633851E+02   -0.36224E+03   -0.35879E+03  1341   0.492E+02
DAV:   3    -0.867715319424E+01   -0.32000E+02   -0.31965E+02  2120   0.162E+02
DAV:   4    -0.951768200203E+01   -0.84053E+00   -0.84015E+00  1850   0.262E+01
DAV:   5    -0.954993950195E+01   -0.32257E-01   -0.32257E-01  2230   0.339E+00    0.396E+00
DAV:   6    -0.920504639004E+01    0.34489E+00   -0.68373E-01  2006   0.338E+00    0.297E+00
DAV:   7    -0.912624739814E+01    0.78799E-01   -0.38419E-01  1773   0.260E+00    0.147E+00
DAV:   8    -0.912901343456E+01   -0.27660E-02   -0.44871E-02  1704   0.180E+00    0.176E-01
DAV:   9    -0.912874495683E+01    0.26848E-03   -0.50118E-03  1656   0.610E-01    0.929E-02
DAV:  10    -0.912880778081E+01   -0.62824E-04   -0.69926E-04  1874   0.149E-01    0.428E-02
DAV:  11    -0.912880703566E+01    0.74515E-06   -0.46450E-05  1469   0.461E-02
   1 F= -.91288070E+01 E0= -.91287190E+01  d E =-.912881E+01
       N       E                     dE             d eps       ncg     rms          rms(c)
DAV:   1    -0.935841379231E+01   -0.22961E+00   -0.62139E+00  1663   0.350E+01    0.276E+00
DAV:   2    -0.918318392010E+01    0.17523E+00   -0.36920E-01  1559   0.726E+00    0.122E+00
DAV:   3    -0.914216545845E+01    0.41018E-01   -0.12557E-01  1789   0.414E+00    0.602E-01
DAV:   4    -0.914176863734E+01    0.39682E-03   -0.93600E-03  2090   0.591E-01    0.315E-01
DAV:   5    -0.914165958889E+01    0.10905E-03   -0.21097E-03  2232   0.337E-01    0.461E-02
DAV:   6    -0.914162395040E+01    0.35638E-04   -0.82199E-05  1657   0.103E-01    0.286E-02
DAV:   7    -0.914160528483E+01    0.18666E-04   -0.60647E-05  1600   0.671E-02    0.324E-03
DAV:   8    -0.914160509409E+01    0.19074E-06   -0.15734E-06   835   0.123E-02
   2 F= -.91416051E+01 E0= -.91415252E+01  d E =-.127981E-01
       N       E                     dE             d eps       ncg     rms          rms(c)
DAV:   1    -0.928535045672E+01   -0.14375E+00   -0.39998E+00  1649   0.279E+01    0.221E+00
DAV:   2    -0.917201661724E+01    0.11333E+00   -0.24098E-01  1559   0.582E+00    0.978E-01
DAV:   3    -0.914560236302E+01    0.26414E-01   -0.80818E-02  1767   0.331E+00    0.475E-01
DAV:   4    -0.914533874924E+01    0.26361E-03   -0.60466E-03  2054   0.465E-01    0.255E-01
DAV:   5    -0.914526341792E+01    0.75331E-04   -0.12753E-03  2265   0.253E-01    0.343E-02
DAV:   6    -0.914524202710E+01    0.21391E-04   -0.48427E-05  1566   0.781E-02    0.217E-02
DAV:   7    -0.914522905114E+01    0.12976E-04   -0.42069E-05  1502   0.543E-02    0.365E-03
DAV:   8    -0.914522884027E+01    0.21086E-06   -0.13129E-06   758   0.106E-02
   3 F= -.91452288E+01 E0= -.91451496E+01  d E =-.164218E-01
       N       E                     dE             d eps       ncg     rms          rms(c)
DAV:   1    -0.914819258748E+01   -0.29635E-02   -0.81382E-02  1656   0.391E+00    0.315E-01
DAV:   2    -0.914584069611E+01    0.23519E-02   -0.50703E-03  1551   0.838E-01    0.140E-01
DAV:   3    -0.914529960471E+01    0.54109E-03   -0.16812E-03  1760   0.476E-01    0.654E-02
DAV:   4    -0.914528991954E+01    0.96852E-05   -0.12026E-04  2077   0.658E-02    0.387E-02
DAV:   5    -0.914528273456E+01    0.71850E-05   -0.17849E-05  1380   0.291E-02
   4 F= -.91452827E+01 E0= -.91452034E+01  d E =-.164757E-01
       N       E                     dE             d eps       ncg     rms          rms(c)
DAV:   1    -0.914585294089E+01   -0.56302E-03   -0.16126E-02  1635   0.174E+00    0.140E-01
DAV:   2    -0.914537262097E+01    0.48032E-03   -0.10361E-03  1601   0.377E-01    0.629E-02
DAV:   3    -0.914526573613E+01    0.10688E-03   -0.33338E-04  1721   0.213E-01    0.288E-02
DAV:   4    -0.914526793382E+01   -0.21977E-05   -0.26525E-05  1809   0.298E-02    0.170E-02
DAV:   5    -0.914527048147E+01   -0.25476E-05   -0.30357E-06   667   0.135E-02
   5 F= -.91452705E+01 E0= -.91451912E+01  d E =-.164634E-01
       N       E                     dE             d eps       ncg     rms          rms(c)
DAV:   1    -0.914540619354E+01   -0.13826E-03   -0.35442E-03  1628   0.814E-01    0.657E-02
DAV:   2    -0.914530614648E+01    0.10005E-03   -0.23159E-04  1643   0.177E-01    0.296E-02
DAV:   3    -0.914528176149E+01    0.24385E-04   -0.71443E-05  1468   0.997E-02    0.136E-02
DAV:   4    -0.914528014946E+01    0.16120E-05   -0.48811E-06   856   0.146E-02    0.760E-03
DAV:   5    -0.914527888965E+01    0.12598E-05   -0.18577E-06   667   0.103E-02
   6 F= -.91452789E+01 E0= -.91451996E+01  d E =-.164719E-01
