 vasp.5.4.4.18Apr17-6-g9f103f2a35 (build Jun 23 2019 17:35:09) complex          
  
 executed on             LinuxIFC date 2020.01.14  23:08:22
 running on   28 total cores
 distrk:  each k-point on    7 cores,    4 groups
 distr:  one band on NCORES_PER_BAND=   7 cores,    1 groups


--------------------------------------------------------------------------------------------------------


 INCAR:
 POTCAR:    PAW_PBE Bi_d 06Sep2000                
 POTCAR:    PAW_PBE K_sv 06Sep2000                
 POTCAR:    PAW_PBE Na_pv 19Sep2006               

 ----------------------------------------------------------------------------- 
|                                                                             |
|           W    W    AA    RRRRR   N    N  II  N    N   GGGG   !!!           |
|           W    W   A  A   R    R  NN   N  II  NN   N  G    G  !!!           |
|           W    W  A    A  R    R  N N  N  II  N N  N  G       !!!           |
|           W WW W  AAAAAA  RRRRR   N  N N  II  N  N N  G  GGG   !            |
|           WW  WW  A    A  R   R   N   NN  II  N   NN  G    G                |
|           W    W  A    A  R    R  N    N  II  N    N   GGGG   !!!           |
|                                                                             |
|      You have enabled k-point parallelism (KPAR>1).                         |
|      This developmental code was originally  written by Paul Kent at ORNL,  |
|      and carefully double checked in Vienna.                                |
|      GW as well as linear response parallelism added by Martijn Marsman     |
|      and Georg Kresse.                                                      |
|      Carefully verify results versus KPAR=1.                                |
|      Report problems to Paul Kent and Vienna.                               |
|                                                                             |
 ----------------------------------------------------------------------------- 

 POTCAR:    PAW_PBE Bi_d 06Sep2000                
   VRHFIN =Bi:                                                                  
   LEXCH  = PE                                                                  
   EATOM  =  1959.2045 eV,  143.9975 Ry                                         
                                                                                
   TITEL  = PAW_PBE Bi_d 06Sep2000                                              
   LULTRA =        F    use ultrasoft PP ?                                      
   IUNSCR =        1    unscreen: 0-lin 1-nonlin 2-no                           
   RPACOR =    2.200    partial core radius                                     
   POMASS =  208.980; ZVAL   =   15.000    mass and valenz                      
   RCORE  =    2.500    outmost cutoff radius                                   
   RWIGS  =    3.090; RWIGS  =    1.635    wigner-seitz radius (au A)           
   ENMAX  =  242.839; ENMIN  =  182.129 eV                                      
   ICORE  =        3    local potential                                         
   LCOR   =        T    correct aug charges                                     
   LPAW   =        T    paw PP                                                  
   EAUG   =  442.899                                                            
   DEXC   =    0.000                                                            
   RMAX   =    2.551    core radius for proj-oper                               
   RAUG   =    1.300    factor for augmentation sphere                          
   RDEP   =    2.650    radius for radial grids                                 
   RDEPT  =    2.039    core radius for aug-charge                              
                                                                                
   Atomic configuration                                                         
   16 entries                                                                   
     n  l   j            E        occ.                                          
     1  0  0.50    -90639.6581   2.0000                                         
     2  0  0.50    -16282.4666   2.0000                                         
     2  1  1.50    -13922.8286   6.0000                                         
     3  0  0.50     -3930.4763   2.0000                                         
     3  1  1.50     -3256.7013   6.0000                                         
     3  2  2.50     -2581.6168  10.0000                                         
     4  0  0.50      -902.2614   2.0000                                         
     4  1  1.50      -681.5915   6.0000                                         
     4  2  2.50      -429.8249  10.0000                                         
     4  3  3.50      -152.6004  14.0000                                         
     5  0  0.50      -157.7156   2.0000                                         
     5  1  1.50       -95.8054   6.0000                                         
     5  2  2.50       -27.0806  10.0000                                         
     6  0  0.50       -14.4732   2.0000                                         
     6  1  1.50        -4.5702   3.0000                                         
     5  3  2.50        -2.7212   0.0000                                         
   Description                                                                  
     l       E           TYP  RCUT    TYP  RCUT                                 
     2    -27.0805982     23  2.500                                             
     2     -1.3605826     23  2.500                                             
     0    -14.4732271     23  2.500                                             
     0      6.8029130     23  2.500                                             
     1     -4.5701651     23  2.500                                             
     1     13.6058260     23  2.500                                             
     3     -1.3605826      7  2.500                                             
  local pseudopotential read in
  partial core-charges read in
  partial kinetic energy density read in
  atomic valenz-charges read in
  non local Contribution for L=           2  read in
    real space projection operators read in
  non local Contribution for L=           2  read in
    real space projection operators read in
  non local Contribution for L=           0  read in
    real space projection operators read in
  non local Contribution for L=           0  read in
    real space projection operators read in
  non local Contribution for L=           1  read in
    real space projection operators read in
  non local Contribution for L=           1  read in
    real space projection operators read in
    PAW grid and wavefunctions read in
 
   number of l-projection  operators is LMAX  =           6
   number of lm-projection operators is LMMAX =          18
 
 POTCAR:    PAW_PBE K_sv 06Sep2000                
   VRHFIN =K:  3s3p4s                                                           
   LEXCH  = PE                                                                  
   EATOM  =   775.0067 eV,   56.9614 Ry                                         
                                                                                
   TITEL  = PAW_PBE K_sv 06Sep2000                                              
   LULTRA =        F    use ultrasoft PP ?                                      
   IUNSCR =        1    unscreen: 0-lin 1-nonlin 2-no                           
   RPACOR =    2.200    partial core radius                                     
   POMASS =   39.098; ZVAL   =    9.000    mass and valenz                      
   RCORE  =    2.300    outmost cutoff radius                                   
   RWIGS  =    3.000; RWIGS  =    1.588    wigner-seitz radius (au A)           
   ENMAX  =  259.264; ENMIN  =  194.448 eV                                      
   RCLOC  =    2.005    cutoff for local pot                                    
   LCOR   =        T    correct aug charges                                     
   LPAW   =        T    paw PP                                                  
   EAUG   =  427.853                                                            
   DEXC   =    0.000                                                            
   RMAX   =    2.358    core radius for proj-oper                               
   RAUG   =    1.300    factor for augmentation sphere                          
   RDEP   =    2.372    radius for radial grids                                 
   RDEPT  =    2.002    core radius for aug-charge                              
                                                                                
   Atomic configuration                                                         
    7 entries                                                                   
     n  l   j            E        occ.                                          
     1  0  0.50     -3522.0595   2.0000                                         
     2  0  0.50      -353.3851   2.0000                                         
     2  1  1.50      -280.0935   6.0000                                         
     3  0  0.50       -35.3419   2.0000                                         
     4  0  0.50        -2.3190   1.0000                                         
     3  1  1.50       -18.8125   6.0000                                         
     3  2  1.50        -1.3606   0.0000                                         
   Description                                                                  
     l       E           TYP  RCUT    TYP  RCUT                                 
     0    -35.3418873     23  2.300                                             
     0     -2.3190215     23  2.300                                             
     1    -18.8124623     23  2.300                                             
     1    -20.4087390     23  2.300                                             
     2     -1.3605826     23  2.300                                             
  local pseudopotential read in
  partial core-charges read in
  partial kinetic energy density read in
  atomic valenz-charges read in
  non local Contribution for L=           0  read in
    real space projection operators read in
  non local Contribution for L=           0  read in
    real space projection operators read in
  non local Contribution for L=           1  read in
    real space projection operators read in
  non local Contribution for L=           1  read in
    real space projection operators read in
  non local Contribution for L=           2  read in
    real space projection operators read in
    PAW grid and wavefunctions read in
 
   number of l-projection  operators is LMAX  =           5
   number of lm-projection operators is LMMAX =          13
 
 POTCAR:    PAW_PBE Na_pv 19Sep2006               
   VRHFIN =Na: p6s1                                                             
   LEXCH  = PE                                                                  
   EATOM  =   766.0439 eV,   56.3026 Ry                                         
                                                                                
   TITEL  = PAW_PBE Na_pv 19Sep2006                                             
   LULTRA =        F    use ultrasoft PP ?                                      
   IUNSCR =        1    unscreen: 0-lin 1-nonlin 2-no                           
   RPACOR =    1.800    partial core radius                                     
   POMASS =   22.990; ZVAL   =    7.000    mass and valenz                      
   RCORE  =    2.200    outmost cutoff radius                                   
   RWIGS  =    2.200; RWIGS  =    1.164    wigner-seitz radius (au A)           
   ENMAX  =  259.561; ENMIN  =  194.671 eV                                      
   ICORE  =        2    local potential                                         
   LCOR   =        T    correct aug charges                                     
   LPAW   =        T    paw PP                                                  
   EAUG   =  368.056                                                            
   DEXC   =    0.000                                                            
   RMAX   =    2.245    core radius for proj-oper                               
   RAUG   =    1.300    factor for augmentation sphere                          
   RDEP   =    2.259    radius for radial grids                                 
   RDEPT  =    1.738    core radius for aug-charge                              
                                                                                
   Atomic configuration                                                         
    5 entries                                                                   
     n  l   j            E        occ.                                          
     1  0  0.50     -1033.6933   2.0000                                         
     2  0  0.50       -56.7526   2.0000                                         
     2  1  1.50       -28.6721   6.0000                                         
     3  0  0.50        -2.7440   1.0000                                         
     3  2  1.50        -1.3606   0.0000                                         
   Description                                                                  
     l       E           TYP  RCUT    TYP  RCUT                                 
     1    -28.6720912     23  2.000                                             
     1      6.8029130     23  2.000                                             
     0     -2.7439560     23  2.200                                             
     0     34.0145650     23  2.200                                             
     2     -1.3605826     23  2.200                                             
  local pseudopotential read in
  partial core-charges read in
  partial kinetic energy density read in
  atomic valenz-charges read in
  non local Contribution for L=           1  read in
    real space projection operators read in
  non local Contribution for L=           1  read in
    real space projection operators read in
  non local Contribution for L=           0  read in
    real space projection operators read in
  non local Contribution for L=           0  read in
    real space projection operators read in
    PAW grid and wavefunctions read in
 
   number of l-projection  operators is LMAX  =           4
   number of lm-projection operators is LMMAX =           8
 
  PAW_PBE Bi_d 06Sep2000                :
 energy of atom  1       EATOM=-1959.2045
 kinetic energy error for atom=    0.0040 (will be added to EATOM!!)
  PAW_PBE K_sv 06Sep2000                :
 energy of atom  2       EATOM= -775.0067
 kinetic energy error for atom=    0.0014 (will be added to EATOM!!)
  PAW_PBE Na_pv 19Sep2006               :
 energy of atom  3       EATOM= -766.0439
 kinetic energy error for atom=    0.0019 (will be added to EATOM!!)
 
 
 POSCAR: Na K Bi                                 
  positions in direct lattice
  No initial velocities read in
 exchange correlation table for  LEXCH =        8
   RHO(1)=    0.500       N(1)  =     2000
   RHO(2)=  100.500       N(2)  =     4000
 


--------------------------------------------------------------------------------------------------------


 ion  position               nearest neighbor table
   1  0.250  0.250  0.250-
   2  0.750  0.750  0.750-
   3  0.000  0.000  0.000-
   4  0.500  0.500  0.500-
 
  LATTYP: Found a face centered cubic cell.
 ALAT       =     7.8352820000
  
  Lattice vectors:
  
 A1 = (   0.0000000000,   3.9176410000,   3.9176410000)
 A2 = (   3.9176410000,   0.0000000000,   3.9176410000)
 A3 = (   3.9176410000,   3.9176410000,   0.0000000000)


Analysis of symmetry for initial positions (statically):
=====================================================================
 Subroutine PRICEL returns:
 Original cell was already a primitive cell.
 

 Routine SETGRP: Setting up the symmetry group for a 
 face centered cubic supercell.


 Subroutine GETGRP returns: Found 48 space group operations
 (whereof 24 operations were pure point group operations)
 out of a pool of 48 trial point group operations.


The static configuration has the point symmetry T_d .
 The point group associated with its full space group is O_h .


Analysis of symmetry for dynamics (positions and initial velocities):
=====================================================================
 Subroutine PRICEL returns:
 Original cell was already a primitive cell.
 

 Routine SETGRP: Setting up the symmetry group for a 
 face centered cubic supercell.


 Subroutine GETGRP returns: Found 48 space group operations
 (whereof 24 operations were pure point group operations)
 out of a pool of 48 trial point group operations.


The dynamic configuration has the point symmetry T_d .
 The point group associated with its full space group is O_h .


 Subroutine INISYM returns: Found 48 space group operations
 (whereof 24 operations are pure point group operations),
 and found     1 'primitive' translations

 
 
 KPOINTS: KPOINTS                                 

Automatic generation of k-mesh.
Space group operators:
 irot       det(A)        alpha          n_x          n_y          n_z        tau_x        tau_y        tau_z
    1     1.000000     0.000000     1.000000     0.000000     0.000000     0.000000     0.000000     0.000000
    2     1.000000   120.000000    -0.577350    -0.577350    -0.577350     0.000000     0.000000     0.000000
    3     1.000000   120.000000     0.577350     0.577350     0.577350     0.000000     0.000000     0.000000
    4    -1.000000    90.000000     0.000000     0.000000    -1.000000     0.000000     0.000000     0.000000
    5    -1.000000   180.000000     0.000000     0.707107     0.707107     0.000000     0.000000     0.000000
    6    -1.000000    90.000000     0.000000     1.000000     0.000000     0.000000     0.000000     0.000000
    7     1.000000   179.999999     0.000000     0.000000     1.000000     0.000000     0.000000     0.000000
    8     1.000000   120.000000    -0.577350     0.577350     0.577350     0.000000     0.000000     0.000000
    9     1.000000   120.000000    -0.577350     0.577350    -0.577350     0.000000     0.000000     0.000000
   10    -1.000000    90.000000     0.000000     0.000000     1.000000     0.000000     0.000000     0.000000
   11    -1.000000    90.000000    -1.000000     0.000000     0.000000     0.000000     0.000000     0.000000
   12    -1.000000   180.000000     0.707107     0.000000     0.707107     0.000000     0.000000     0.000000
   13     1.000000   120.000000     0.577350    -0.577350     0.577350     0.000000     0.000000     0.000000
   14     1.000000   120.000000    -0.577350    -0.577350     0.577350     0.000000     0.000000     0.000000
   15     1.000000   180.000000     1.000000     0.000000     0.000000     0.000000     0.000000     0.000000
   16    -1.000000    90.000000     0.000000    -1.000000     0.000000     0.000000     0.000000     0.000000
   17    -1.000000   180.000000     0.707107     0.707107     0.000000     0.000000     0.000000     0.000000
   18    -1.000000    90.000000     1.000000     0.000000     0.000000     0.000000     0.000000     0.000000
   19     1.000000   120.000000     0.577350    -0.577350    -0.577350     0.000000     0.000000     0.000000
   20     1.000000   180.000000     0.000000     1.000000     0.000000     0.000000     0.000000     0.000000
   21     1.000000   120.000000     0.577350     0.577350    -0.577350     0.000000     0.000000     0.000000
   22    -1.000000   180.000000     0.000000    -0.707107     0.707107     0.000000     0.000000     0.000000
   23    -1.000000   180.000000     0.707107    -0.707107     0.000000     0.000000     0.000000     0.000000
   24    -1.000000   180.000000     0.707107     0.000000    -0.707107     0.000000     0.000000     0.000000
   25    -1.000000     0.000000     1.000000     0.000000     0.000000     0.500000     0.500000     0.500000
   26    -1.000000   120.000000    -0.577350    -0.577350    -0.577350     0.500000     0.500000     0.500000
   27    -1.000000   120.000000     0.577350     0.577350     0.577350     0.500000     0.500000     0.500000
   28     1.000000    90.000000     0.000000     0.000000    -1.000000     0.500000     0.500000     0.500000
   29     1.000000   180.000000     0.000000     0.707107     0.707107     0.500000     0.500000     0.500000
   30     1.000000    90.000000     0.000000     1.000000     0.000000     0.500000     0.500000     0.500000
   31    -1.000000   179.999999     0.000000     0.000000     1.000000     0.500000     0.500000     0.500000
   32    -1.000000   120.000000    -0.577350     0.577350     0.577350     0.500000     0.500000     0.500000
   33    -1.000000   120.000000    -0.577350     0.577350    -0.577350     0.500000     0.500000     0.500000
   34     1.000000    90.000000     0.000000     0.000000     1.000000     0.500000     0.500000     0.500000
   35     1.000000    90.000000    -1.000000     0.000000     0.000000     0.500000     0.500000     0.500000
   36     1.000000   180.000000     0.707107     0.000000     0.707107     0.500000     0.500000     0.500000
   37    -1.000000   120.000000     0.577350    -0.577350     0.577350     0.500000     0.500000     0.500000
   38    -1.000000   120.000000    -0.577350    -0.577350     0.577350     0.500000     0.500000     0.500000
   39    -1.000000   180.000000     1.000000     0.000000     0.000000     0.500000     0.500000     0.500000
   40     1.000000    90.000000     0.000000    -1.000000     0.000000     0.500000     0.500000     0.500000
   41     1.000000   180.000000     0.707107     0.707107     0.000000     0.500000     0.500000     0.500000
   42     1.000000    90.000000     1.000000     0.000000     0.000000     0.500000     0.500000     0.500000
   43    -1.000000   120.000000     0.577350    -0.577350    -0.577350     0.500000     0.500000     0.500000
   44    -1.000000   180.000000     0.000000     1.000000     0.000000     0.500000     0.500000     0.500000
   45    -1.000000   120.000000     0.577350     0.577350    -0.577350     0.500000     0.500000     0.500000
   46     1.000000   180.000000     0.000000    -0.707107     0.707107     0.500000     0.500000     0.500000
   47     1.000000   180.000000     0.707107    -0.707107     0.000000     0.500000     0.500000     0.500000
   48     1.000000   180.000000     0.707107     0.000000    -0.707107     0.500000     0.500000     0.500000
 
 Subroutine IBZKPT returns following result:
 ===========================================
 
 Found     29 irreducible k-points:
 
 Following reciprocal coordinates:
            Coordinates               Weight
  0.000000  0.000000  0.000000      1.000000
  0.125000  0.000000  0.000000      8.000000
  0.250000  0.000000  0.000000      8.000000
  0.375000  0.000000  0.000000      8.000000
  0.500000  0.000000  0.000000      4.000000
  0.125000  0.125000  0.000000      6.000000
  0.250000  0.125000  0.000000     24.000000
  0.375000  0.125000  0.000000     24.000000
  0.500000  0.125000  0.000000     24.000000
 -0.375000  0.125000  0.000000     24.000000
 -0.250000  0.125000  0.000000     24.000000
 -0.125000  0.125000  0.000000     12.000000
  0.250000  0.250000  0.000000      6.000000
  0.375000  0.250000  0.000000     24.000000
  0.500000  0.250000  0.000000     24.000000
 -0.375000  0.250000  0.000000     24.000000
 -0.250000  0.250000  0.000000     12.000000
  0.375000  0.375000  0.000000      6.000000
  0.500000  0.375000  0.000000     24.000000
 -0.375000  0.375000  0.000000     12.000000
  0.500000  0.500000  0.000000      3.000000
  0.375000  0.250000  0.125000     24.000000
  0.500000  0.250000  0.125000     48.000000
 -0.375000  0.250000  0.125000     24.000000
  0.500000  0.375000  0.125000     24.000000
 -0.375000  0.375000  0.125000     48.000000
 -0.250000  0.375000  0.125000     24.000000
 -0.375000  0.500000  0.125000     12.000000
 -0.250000  0.500000  0.250000      6.000000
 
 Following cartesian coordinates:
            Coordinates               Weight
  0.000000  0.000000  0.000000      1.000000
 -0.015953  0.015953  0.015953      8.000000
 -0.031907  0.031907  0.031907      8.000000
 -0.047860  0.047860  0.047860      8.000000
 -0.063814  0.063814  0.063814      4.000000
  0.000000  0.000000  0.031907      6.000000
 -0.015953  0.015953  0.047860     24.000000
 -0.031907  0.031907  0.063814     24.000000
 -0.047860  0.047860  0.079767     24.000000
  0.063814 -0.063814 -0.031907     24.000000
  0.047860 -0.047860 -0.015953     24.000000
  0.031907 -0.031907  0.000000     12.000000
  0.000000  0.000000  0.063814      6.000000
 -0.015953  0.015953  0.079767     24.000000
 -0.031907  0.031907  0.095721     24.000000
  0.079767 -0.079767 -0.015953     24.000000
  0.063814 -0.063814  0.000000     12.000000
  0.000000  0.000000  0.095721      6.000000
 -0.015953  0.015953  0.111674     24.000000
  0.095721 -0.095721  0.000000     12.000000
  0.000000  0.000000  0.127628      3.000000
 -0.000000  0.031907  0.063814     24.000000
 -0.015953  0.047860  0.079767     48.000000
  0.095721 -0.063814 -0.031907     24.000000
 -0.000000  0.031907  0.095721     24.000000
  0.111674 -0.079767 -0.015953     48.000000
  0.095721 -0.063814  0.000000     24.000000
  0.127628 -0.095721  0.000000     12.000000
  0.127628 -0.063814  0.000000      6.000000
 


--------------------------------------------------------------------------------------------------------




 Dimension of arrays:
   k-points           NKPTS =     29   k-points in BZ     NKDIM =     29   number of bands    NBANDS=     23
   number of dos      NEDOS =    301   number of ions     NIONS =      4
   non local maximal  LDIM  =      6   non local SUM 2l+1 LMDIM =     18
   total plane-waves  NPLWV =  74088
   max r-space proj   IRMAX =      1   max aug-charges    IRDMAX=  28872
   dimension x,y,z NGX =    42 NGY =   42 NGZ =   42
   dimension x,y,z NGXF=    84 NGYF=   84 NGZF=   84
   support grid    NGXF=    84 NGYF=   84 NGZF=   84
   ions per type =               1   1   2
   NGX,Y,Z   is equivalent  to a cutoff of  12.60, 12.60, 12.60 a.u.
   NGXF,Y,Z  is equivalent  to a cutoff of  25.21, 25.21, 25.21 a.u.

 SYSTEM =  unknown system                          
 POSCAR =  Na K Bi                                 

 Startparameter for this run:
   NWRITE =      2    write-flag & timer
   PREC   = acc       normal or accurate (medium, high low for compatibility)
   ISTART =      0    job   : 0-new  1-cont  2-samecut
   ICHARG =      2    charge: 1-file 2-atom 10-const
   ISPIN  =      1    spin polarized calculation?
   LNONCOLLINEAR =      F non collinear calculations
   LSORBIT =      F    spin-orbit coupling
   INIWAV =      1    electr: 0-lowe 1-rand  2-diag
   LASPH  =      F    aspherical Exc in radial PAW
   METAGGA=      F    non-selfconsistent MetaGGA calc.

 Electronic Relaxation 1
   ENCUT  =  520.0 eV  38.22 Ry    6.18 a.u.  10.30 10.30 10.30*2*pi/ulx,y,z
   ENINI  =  520.0     initial cutoff
   ENAUG  =  442.9 eV  augmentation charge cutoff
   NELM   =     60;   NELMIN=  5; NELMDL= -5     # of ELM steps 
   EDIFF  = 0.1E-04   stopping-criterion for ELM
   LREAL  =      F    real-space projection
   NLSPLINE    = F    spline interpolate recip. space projectors
   LCOMPAT=      F    compatible to vasp.4.4
   GGA_COMPAT  = T    GGA compatible to vasp.4.4-vasp.4.6
   LMAXPAW     = -100 max onsite density
   LMAXMIX     =    2 max onsite mixed and CHGCAR
   VOSKOWN=      0    Vosko Wilk Nusair interpolation
   ROPT   =    0.00000   0.00000   0.00000
 Ionic relaxation
   EDIFFG = -.1E-02   stopping-criterion for IOM
   NSW    =    100    number of steps for IOM
   NBLOCK =      1;   KBLOCK =    100    inner block; outer block 
   IBRION =      2    ionic relax: 0-MD 1-quasi-New 2-CG
   NFREE  =      1    steps in history (QN), initial steepest desc. (CG)
   ISIF   =      3    stress and relaxation
   IWAVPR =     11    prediction:  0-non 1-charg 2-wave 3-comb
   ISYM   =      2    0-nonsym 1-usesym 2-fastsym
   LCORR  =      T    Harris-Foulkes like correction to forces

   POTIM  = 0.5000    time-step for ionic-motion
   TEIN   =    0.0    initial temperature
   TEBEG  =    0.0;   TEEND  =   0.0 temperature during run
   SMASS  =  -3.00    Nose mass-parameter (am)
   estimated Nose-frequenzy (Omega)   =  0.10E-29 period in steps =****** mass=  -0.701E-27a.u.
   SCALEE = 1.0000    scale energy and forces
   NPACO  =    256;   APACO  = 16.0  distance and # of slots for P.C.
   PSTRESS=    0.0 pullay stress

  Mass of Ions in am
   POMASS = 208.98 39.10 22.99
  Ionic Valenz
   ZVAL   =  15.00  9.00  7.00
  Atomic Wigner-Seitz radii
   RWIGS  =  -1.00 -1.00 -1.00
  virtual crystal weights 
   VCA    =   1.00  1.00  1.00
   NELECT =      38.0000    total number of electrons
   NUPDOWN=      -1.0000    fix difference up-down

 DOS related values:
   EMIN   =  10.00;   EMAX   =-10.00  energy-range for DOS
   EFERMI =   0.00
   ISMEAR =     0;   SIGMA  =   0.05  broadening in eV -4-tet -1-fermi 0-gaus

 Electronic relaxation 2 (details)
   IALGO  =     38    algorithm
   LDIAG  =      T    sub-space diagonalisation (order eigenvalues)
   LSUBROT=      F    optimize rotation matrix (better conditioning)
   TURBO    =      0    0=normal 1=particle mesh
   IRESTART =      0    0=no restart 2=restart with 2 vectors
   NREBOOT  =      0    no. of reboots
   NMIN     =      0    reboot dimension
   EREF     =   0.00    reference energy to select bands
   IMIX   =      4    mixing-type and parameters
     AMIX     =   0.40;   BMIX     =  1.00
     AMIX_MAG =   1.60;   BMIX_MAG =  1.00
     AMIN     =   0.10
     WC   =   100.;   INIMIX=   1;  MIXPRE=   1;  MAXMIX= -45

 Intra band minimization:
   WEIMIN = 0.0010     energy-eigenvalue tresh-hold
   EBREAK =  0.11E-06  absolut break condition
   DEPER  =   0.30     relativ break condition  

   TIME   =   0.40     timestep for ELM

  volume/ion in A,a.u.               =      30.06       202.88
  Fermi-wavevector in a.u.,A,eV,Ry     =   1.115068  2.107173 16.917170  1.243377
  Thomas-Fermi vector in A             =   2.251669
 
 Write flags
   LWAVE        =      F    write WAVECAR
   LDOWNSAMPLE  =      F    k-point downsampling of WAVECAR
   LCHARG       =      F    write CHGCAR
   LVTOT        =      F    write LOCPOT, total local potential
   LVHAR        =      F    write LOCPOT, Hartree potential only
   LELF         =      F    write electronic localiz. function (ELF)
   LORBIT       =      0    0 simple, 1 ext, 2 COOP (PROOUT), +10 PAW based schemes


 Dipole corrections
   LMONO  =      F    monopole corrections only (constant potential shift)
   LDIPOL =      F    correct potential (dipole corrections)
   IDIPOL =      0    1-x, 2-y, 3-z, 4-all directions 
   EPSILON=  1.0000000 bulk dielectric constant

 Exchange correlation treatment:
   GGA     =    PE    GGA type
   LEXCH   =     8    internal setting for exchange type
   VOSKOWN=      0    Vosko Wilk Nusair interpolation
   LHFCALC =     F    Hartree Fock is set to
   LHFONE  =     F    Hartree Fock one center treatment
   AEXX    =    0.0000 exact exchange contribution

 Linear response parameters
   LEPSILON=     F    determine dielectric tensor
   LRPA    =     F    only Hartree local field effects (RPA)
   LNABLA  =     F    use nabla operator in PAW spheres
   LVEL    =     F    velocity operator in full k-point grid
   LINTERFAST=   F  fast interpolation
   KINTER  =     0    interpolate to denser k-point grid
   CSHIFT  =0.1000    complex shift for real part using Kramers Kronig
   OMEGAMAX=  -1.0    maximum frequency
   DEG_THRESHOLD= 0.2000000E-02 threshold for treating states as degnerate
   RTIME   =   -0.100 relaxation time in fs
  (WPLASMAI=    0.000 imaginary part of plasma frequency in eV, 0.658/RTIME)
   DFIELD  = 0.0000000 0.0000000 0.0000000 field for delta impulse in time
 
 Orbital magnetization related:
   ORBITALMAG=     F  switch on orbital magnetization
   LCHIMAG   =     F  perturbation theory with respect to B field
   DQ        =  0.001000  dq finite difference perturbation B field
   LLRAUG    =     F  two centre corrections for induced B field



--------------------------------------------------------------------------------------------------------


 conjugate gradient relaxation of ions
 charge density and potential will be updated during run
 non-spin polarized calculation
 Variant of blocked Davidson
 Davidson routine will perform the subspace rotation
 perform sub-space diagonalisation
    after iterative eigenvector-optimisation
 modified Broyden-mixing scheme, WC =      100.0
 initial mixing is a Kerker type mixing with AMIX =  0.4000 and BMIX =      1.0000
 Hartree-type preconditioning will be used
 using additional bands            4
 reciprocal scheme for non local part
 use partial core corrections
 calculate Harris-corrections to forces 
   (improved forces if not selfconsistent)
 use gradient corrections 
 use of overlap-Matrix (Vanderbilt PP)
 Gauss-broadening in eV      SIGMA  =   0.05


--------------------------------------------------------------------------------------------------------


  energy-cutoff  :      520.00
  volume of cell :      120.26
      direct lattice vectors                 reciprocal lattice vectors
     0.000000000  3.917641000  3.917641000    -0.127627825  0.127627825  0.127627825
     3.917641000  0.000000000  3.917641000     0.127627825 -0.127627825  0.127627825
     3.917641000  3.917641000  0.000000000     0.127627825  0.127627825 -0.127627825

  length of vectors
     5.540381035  5.540381035  5.540381035     0.221057877  0.221057877  0.221057877


 
 k-points in units of 2pi/SCALE and weight: KPOINTS                                 
   0.00000000  0.00000000  0.00000000       0.002
  -0.01595348  0.01595348  0.01595348       0.016
  -0.03190696  0.03190696  0.03190696       0.016
  -0.04786043  0.04786043  0.04786043       0.016
  -0.06381391  0.06381391  0.06381391       0.008
   0.00000000  0.00000000  0.03190696       0.012
  -0.01595348  0.01595348  0.04786043       0.047
  -0.03190696  0.03190696  0.06381391       0.047
  -0.04786043  0.04786043  0.07976739       0.047
   0.06381391 -0.06381391 -0.03190696       0.047
   0.04786043 -0.04786043 -0.01595348       0.047
   0.03190696 -0.03190696  0.00000000       0.023
   0.00000000  0.00000000  0.06381391       0.012
  -0.01595348  0.01595348  0.07976739       0.047
  -0.03190696  0.03190696  0.09572087       0.047
   0.07976739 -0.07976739 -0.01595348       0.047
   0.06381391 -0.06381391  0.00000000       0.023
   0.00000000  0.00000000  0.09572087       0.012
  -0.01595348  0.01595348  0.11167435       0.047
   0.09572087 -0.09572087  0.00000000       0.023
   0.00000000  0.00000000  0.12762783       0.006
  -0.00000000  0.03190696  0.06381391       0.047
  -0.01595348  0.04786043  0.07976739       0.094
   0.09572087 -0.06381391 -0.03190696       0.047
  -0.00000000  0.03190696  0.09572087       0.047
   0.11167435 -0.07976739 -0.01595348       0.094
   0.09572087 -0.06381391  0.00000000       0.047
   0.12762783 -0.09572087  0.00000000       0.023
   0.12762783 -0.06381391  0.00000000       0.012
 
 k-points in reciprocal lattice and weights: KPOINTS                                 
   0.00000000  0.00000000  0.00000000       0.002
   0.12500000  0.00000000  0.00000000       0.016
   0.25000000  0.00000000  0.00000000       0.016
   0.37500000  0.00000000  0.00000000       0.016
   0.50000000  0.00000000  0.00000000       0.008
   0.12500000  0.12500000  0.00000000       0.012
   0.25000000  0.12500000  0.00000000       0.047
   0.37500000  0.12500000  0.00000000       0.047
   0.50000000  0.12500000  0.00000000       0.047
  -0.37500000  0.12500000  0.00000000       0.047
  -0.25000000  0.12500000  0.00000000       0.047
  -0.12500000  0.12500000  0.00000000       0.023
   0.25000000  0.25000000  0.00000000       0.012
   0.37500000  0.25000000  0.00000000       0.047
   0.50000000  0.25000000  0.00000000       0.047
  -0.37500000  0.25000000  0.00000000       0.047
  -0.25000000  0.25000000  0.00000000       0.023
   0.37500000  0.37500000  0.00000000       0.012
   0.50000000  0.37500000  0.00000000       0.047
  -0.37500000  0.37500000  0.00000000       0.023
   0.50000000  0.50000000  0.00000000       0.006
   0.37500000  0.25000000  0.12500000       0.047
   0.50000000  0.25000000  0.12500000       0.094
  -0.37500000  0.25000000  0.12500000       0.047
   0.50000000  0.37500000  0.12500000       0.047
  -0.37500000  0.37500000  0.12500000       0.094
  -0.25000000  0.37500000  0.12500000       0.047
  -0.37500000  0.50000000  0.12500000       0.023
  -0.25000000  0.50000000  0.25000000       0.012
 
 position of ions in fractional coordinates (direct lattice) 
   0.24999994  0.24999994  0.24999994
   0.74999981  0.74999981  0.74999981
   0.00000000  0.00000000  0.00000000
   0.49999987  0.49999987  0.49999987
 
 position of ions in cartesian coordinates  (Angst):
   1.95882000  1.95882000  1.95882000
   5.87646000  5.87646000  5.87646000
   0.00000000  0.00000000  0.00000000
   3.91764000  3.91764000  3.91764000
 


--------------------------------------------------------------------------------------------------------


 k-point  1 :   0.0000 0.0000 0.0000  plane waves:    3287
 k-point  2 :   0.1250 0.0000 0.0000  plane waves:    3236
 k-point  3 :   0.2500 0.0000 0.0000  plane waves:    3251
 k-point  4 :   0.3750 0.0000 0.0000  plane waves:    3242
 k-point  5 :   0.5000 0.0000 0.0000  plane waves:    3214
 k-point  6 :   0.1250 0.1250 0.0000  plane waves:    3235
 k-point  7 :   0.2500 0.1250 0.0000  plane waves:    3244
 k-point  8 :   0.3750 0.1250 0.0000  plane waves:    3233
 k-point  9 :   0.5000 0.1250 0.0000  plane waves:    3237
 k-point 10 :  -0.3750 0.1250 0.0000  plane waves:    3230
 k-point 11 :  -0.2500 0.1250 0.0000  plane waves:    3241
 k-point 12 :  -0.1250 0.1250 0.0000  plane waves:    3259
 k-point 13 :   0.2500 0.2500 0.0000  plane waves:    3207
 k-point 14 :   0.3750 0.2500 0.0000  plane waves:    3241
 k-point 15 :   0.5000 0.2500 0.0000  plane waves:    3244
 k-point 16 :  -0.3750 0.2500 0.0000  plane waves:    3225
 k-point 17 :  -0.2500 0.2500 0.0000  plane waves:    3230
 k-point 18 :   0.3750 0.3750 0.0000  plane waves:    3242
 k-point 19 :   0.5000 0.3750 0.0000  plane waves:    3253
 k-point 20 :  -0.3750 0.3750 0.0000  plane waves:    3238
 k-point 21 :   0.5000 0.5000 0.0000  plane waves:    3250
 k-point 22 :   0.3750 0.2500 0.1250  plane waves:    3235
 k-point 23 :   0.5000 0.2500 0.1250  plane waves:    3238
 k-point 24 :  -0.3750 0.2500 0.1250  plane waves:    3238
 k-point 25 :   0.5000 0.3750 0.1250  plane waves:    3238
 k-point 26 :  -0.3750 0.3750 0.1250  plane waves:    3237
 k-point 27 :  -0.2500 0.3750 0.1250  plane waves:    3239
 k-point 28 :  -0.3750 0.5000 0.1250  plane waves:    3236
 k-point 29 :  -0.2500 0.5000 0.2500  plane waves:    3248

 maximum and minimum number of plane-waves per node :       477      445

 maximum number of plane-waves:      3287
 maximum index in each direction: 
   IXMAX=   10   IYMAX=   10   IZMAX=   10
   IXMIN=  -10   IYMIN=  -10   IZMIN=  -10


 parallel 3D FFT for wavefunctions:
    minimum data exchange during FFTs selected (reduces bandwidth)
 parallel 3D FFT for charge:
    minimum data exchange during FFTs selected (reduces bandwidth)


 total amount of memory used by VASP MPI-rank0    50200. kBytes
=======================================================================

   base      :      30000. kBytes
   nonl-proj :       5867. kBytes
   fftplans  :       3210. kBytes
   grid      :       5943. kBytes
   one-center:         15. kBytes
   wavefun   :       5165. kBytes
 
     INWAV:  cpu time    0.0000: real time    0.0000
 Broyden mixing: mesh for mixing (old mesh)
   NGX = 21   NGY = 21   NGZ = 21
  (NGX  = 84   NGY  = 84   NGZ  = 84)
  gives a total of   9261 points

 initial charge density was supplied:
 charge density of overlapping atoms calculated
 number of electron      38.0000000 magnetization 
 keeping initial charge density in first step


--------------------------------------------------------------------------------------------------------


 Maximum index for augmentation-charges         3919 (set IRDMAX)


--------------------------------------------------------------------------------------------------------


 First call to EWALD:  gamma=   0.359
 Maximum number of real-space cells 3x 3x 3
 Maximum number of reciprocal cells 3x 3x 3

    FEWALD:  cpu time    0.0016: real time    0.0016


--------------------------------------- Iteration      1(   1)  ---------------------------------------


    POTLOK:  cpu time    0.0506: real time    0.0554
    SETDIJ:  cpu time    0.0042: real time    0.0042
     EDDAV:  cpu time    0.2924: real time    0.2924
       DOS:  cpu time    0.0006: real time    0.0006
    --------------------------------------------
      LOOP:  cpu time    0.3478: real time    0.3527

 eigenvalue-minimisations  :  1342
 total energy-change (2. order) : 0.3855671E+03  (-0.1998671E+04)
 number of electron      38.0000000 magnetization 
 augmentation part       38.0000000 magnetization 

 Free energy of the ion-electron system (eV)
  ---------------------------------------------------
  alpha Z        PSCENC =       107.19987519
  Ewald energy   TEWEN  =     -2565.77789445
  -Hartree energ DENC   =     -1220.80790265
  -exchange      EXHF   =         0.00000000
  -V(xc)+E(xc)   XCENC  =       133.74438727
  PAW double counting   =      3274.07194199    -3416.58699786
  entropy T*S    EENTRO =        -0.00189141
  eigenvalues    EBANDS =      -192.56419386
  atomic energy  EATOM  =      4266.28978799
  Solvation  Ediel_sol  =         0.00000000
  ---------------------------------------------------
  free energy    TOTEN  =       385.56711220 eV

  energy without entropy =      385.56900362  energy(sigma->0) =      385.56805791


--------------------------------------------------------------------------------------------------------




--------------------------------------- Iteration      1(   2)  ---------------------------------------


     EDDAV:  cpu time    0.2856: real time    0.2879
       DOS:  cpu time    0.0003: real time    0.0003
    --------------------------------------------
      LOOP:  cpu time    0.2859: real time    0.2882

 eigenvalue-minimisations  :  1341
 total energy-change (2. order) :-0.3622444E+03  (-0.3587857E+03)
 number of electron      38.0000000 magnetization 
 augmentation part       38.0000000 magnetization 

 Free energy of the ion-electron system (eV)
  ---------------------------------------------------
  alpha Z        PSCENC =       107.19987519
  Ewald energy   TEWEN  =     -2565.77789445
  -Hartree energ DENC   =     -1220.80790265
  -exchange      EXHF   =         0.00000000
  -V(xc)+E(xc)   XCENC  =       133.74438727
  PAW double counting   =      3274.07194199    -3416.58699786
  entropy T*S    EENTRO =        -0.00000000
  eigenvalues    EBANDS =      -554.81053409
  atomic energy  EATOM  =      4266.28978799
  Solvation  Ediel_sol  =         0.00000000
  ---------------------------------------------------
  free energy    TOTEN  =        23.32266339 eV

  energy without entropy =       23.32266339  energy(sigma->0) =       23.32266339


--------------------------------------------------------------------------------------------------------




--------------------------------------- Iteration      1(   3)  ---------------------------------------


     EDDAV:  cpu time    0.3852: real time    0.3855
       DOS:  cpu time    0.0002: real time    0.0002
    --------------------------------------------
      LOOP:  cpu time    0.3854: real time    0.3857

 eigenvalue-minimisations  :  2120
 total energy-change (2. order) :-0.3199982E+02  (-0.3196501E+02)
 number of electron      38.0000000 magnetization 
 augmentation part       38.0000000 magnetization 

 Free energy of the ion-electron system (eV)
  ---------------------------------------------------
  alpha Z        PSCENC =       107.19987519
  Ewald energy   TEWEN  =     -2565.77789445
  -Hartree energ DENC   =     -1220.80790265
  -exchange      EXHF   =         0.00000000
  -V(xc)+E(xc)   XCENC  =       133.74438727
  PAW double counting   =      3274.07194199    -3416.58699786
  entropy T*S    EENTRO =        -0.00000000
  eigenvalues    EBANDS =      -586.81035067
  atomic energy  EATOM  =      4266.28978799
  Solvation  Ediel_sol  =         0.00000000
  ---------------------------------------------------
  free energy    TOTEN  =        -8.67715319 eV

  energy without entropy =       -8.67715319  energy(sigma->0) =       -8.67715319


--------------------------------------------------------------------------------------------------------




--------------------------------------- Iteration      1(   4)  ---------------------------------------


     EDDAV:  cpu time    0.3587: real time    0.3589
       DOS:  cpu time    0.0003: real time    0.0003
    --------------------------------------------
      LOOP:  cpu time    0.3589: real time    0.3591

 eigenvalue-minimisations  :  1850
 total energy-change (2. order) :-0.8405288E+00  (-0.8401476E+00)
 number of electron      38.0000000 magnetization 
 augmentation part       38.0000000 magnetization 

 Free energy of the ion-electron system (eV)
  ---------------------------------------------------
  alpha Z        PSCENC =       107.19987519
  Ewald energy   TEWEN  =     -2565.77789445
  -Hartree energ DENC   =     -1220.80790265
  -exchange      EXHF   =         0.00000000
  -V(xc)+E(xc)   XCENC  =       133.74438727
  PAW double counting   =      3274.07194199    -3416.58699786
  entropy T*S    EENTRO =        -0.00000000
  eigenvalues    EBANDS =      -587.65087947
  atomic energy  EATOM  =      4266.28978799
  Solvation  Ediel_sol  =         0.00000000
  ---------------------------------------------------
  free energy    TOTEN  =        -9.51768200 eV

  energy without entropy =       -9.51768200  energy(sigma->0) =       -9.51768200


--------------------------------------------------------------------------------------------------------




--------------------------------------- Iteration      1(   5)  ---------------------------------------


     EDDAV:  cpu time    0.3997: real time    0.4003
       DOS:  cpu time    0.0003: real time    0.0003
    CHARGE:  cpu time    0.0380: real time    0.0381
    MIXING:  cpu time    0.0034: real time    0.0034
    --------------------------------------------
      LOOP:  cpu time    0.4414: real time    0.4421

 eigenvalue-minimisations  :  2230
 total energy-change (2. order) :-0.3225750E-01  (-0.3225665E-01)
 number of electron      38.0000018 magnetization 
 augmentation part       16.1476027 magnetization 

 Broyden mixing:
  rms(total) = 0.39592E+00    rms(broyden)= 0.39592E+00
  rms(prec ) = 0.83806E+00
  weight for this iteration     100.00

 Free energy of the ion-electron system (eV)
  ---------------------------------------------------
  alpha Z        PSCENC =       107.19987519
  Ewald energy   TEWEN  =     -2565.77789445
  -Hartree energ DENC   =     -1220.80790265
  -exchange      EXHF   =         0.00000000
  -V(xc)+E(xc)   XCENC  =       133.74438727
  PAW double counting   =      3274.07194199    -3416.58699786
  entropy T*S    EENTRO =        -0.00000000
  eigenvalues    EBANDS =      -587.68313697
  atomic energy  EATOM  =      4266.28978799
  Solvation  Ediel_sol  =         0.00000000
  ---------------------------------------------------
  free energy    TOTEN  =        -9.54993950 eV

  energy without entropy =       -9.54993950  energy(sigma->0) =       -9.54993950


--------------------------------------------------------------------------------------------------------




--------------------------------------- Iteration      1(   6)  ---------------------------------------


    POTLOK:  cpu time    0.0526: real time    0.0530
    SETDIJ:  cpu time    0.0043: real time    0.0043
     EDDAV:  cpu time    0.3807: real time    0.3809
       DOS:  cpu time    0.0004: real time    0.0004
    CHARGE:  cpu time    0.0370: real time    0.0370
    MIXING:  cpu time    0.0030: real time    0.0030
    --------------------------------------------
      LOOP:  cpu time    0.4781: real time    0.4786

 eigenvalue-minimisations  :  2006
 total energy-change (2. order) : 0.3448931E+00  (-0.6837328E-01)
 number of electron      38.0000018 magnetization 
 augmentation part       16.1953374 magnetization 

 Broyden mixing:
  rms(total) = 0.29701E+00    rms(broyden)= 0.29701E+00
  rms(prec ) = 0.45925E+00
  weight for this iteration     100.00

 eigenvalues of (default mixing * dielectric matrix)
  average eigenvalue GAMMA=   2.2221
  2.2221

 Free energy of the ion-electron system (eV)
  ---------------------------------------------------
  alpha Z        PSCENC =       107.19987519
  Ewald energy   TEWEN  =     -2565.77789445
  -Hartree energ DENC   =     -1219.70801092
  -exchange      EXHF   =         0.00000000
  -V(xc)+E(xc)   XCENC  =       133.70347722
  PAW double counting   =      3342.56357206    -3487.55737968
  entropy T*S    EENTRO =        -0.00000115
  eigenvalues    EBANDS =      -585.91847264
  atomic energy  EATOM  =      4266.28978799
  Solvation  Ediel_sol  =         0.00000000
  ---------------------------------------------------
  free energy    TOTEN  =        -9.20504639 eV

  energy without entropy =       -9.20504524  energy(sigma->0) =       -9.20504581


--------------------------------------------------------------------------------------------------------




--------------------------------------- Iteration      1(   7)  ---------------------------------------


    POTLOK:  cpu time    0.0501: real time    0.0505
    SETDIJ:  cpu time    0.0038: real time    0.0038
     EDDAV:  cpu time    0.3427: real time    0.3427
       DOS:  cpu time    0.0005: real time    0.0005
    CHARGE:  cpu time    0.0364: real time    0.0364
    MIXING:  cpu time    0.0026: real time    0.0026
    --------------------------------------------
      LOOP:  cpu time    0.4362: real time    0.4366

 eigenvalue-minimisations  :  1773
 total energy-change (2. order) : 0.7879899E-01  (-0.3841922E-01)
 number of electron      38.0000018 magnetization 
 augmentation part       16.2372971 magnetization 

 Broyden mixing:
  rms(total) = 0.14681E+00    rms(broyden)= 0.14681E+00
  rms(prec ) = 0.17141E+00
  weight for this iteration     100.00

 eigenvalues of (default mixing * dielectric matrix)
  average eigenvalue GAMMA=   2.0712
  1.9647  2.1778

 Free energy of the ion-electron system (eV)
  ---------------------------------------------------
  alpha Z        PSCENC =       107.19987519
  Ewald energy   TEWEN  =     -2565.77789445
  -Hartree energ DENC   =     -1216.53196072
  -exchange      EXHF   =         0.00000000
  -V(xc)+E(xc)   XCENC  =       133.63666017
  PAW double counting   =      3392.30449795    -3539.05631705
  entropy T*S    EENTRO =        -0.00017716
  eigenvalues    EBANDS =      -587.19071931
  atomic energy  EATOM  =      4266.28978799
  Solvation  Ediel_sol  =         0.00000000
  ---------------------------------------------------
  free energy    TOTEN  =        -9.12624740 eV

  energy without entropy =       -9.12607024  energy(sigma->0) =       -9.12615882


--------------------------------------------------------------------------------------------------------




--------------------------------------- Iteration      1(   8)  ---------------------------------------


    POTLOK:  cpu time    0.0496: real time    0.0501
    SETDIJ:  cpu time    0.0038: real time    0.0038
     EDDAV:  cpu time    0.3330: real time    0.3330
       DOS:  cpu time    0.0005: real time    0.0005
    CHARGE:  cpu time    0.0367: real time    0.0367
    MIXING:  cpu time    0.0027: real time    0.0027
    --------------------------------------------
      LOOP:  cpu time    0.4263: real time    0.4268

 eigenvalue-minimisations  :  1704
 total energy-change (2. order) :-0.2766036E-02  (-0.4487115E-02)
 number of electron      38.0000018 magnetization 
 augmentation part       16.2306596 magnetization 

 Broyden mixing:
  rms(total) = 0.17629E-01    rms(broyden)= 0.17628E-01
  rms(prec ) = 0.33891E-01
  weight for this iteration     100.00

 eigenvalues of (default mixing * dielectric matrix)
  average eigenvalue GAMMA=   1.7945
  1.3104  2.0365  2.0365

 Free energy of the ion-electron system (eV)
  ---------------------------------------------------
  alpha Z        PSCENC =       107.19987519
  Ewald energy   TEWEN  =     -2565.77789445
  -Hartree energ DENC   =     -1214.21795063
  -exchange      EXHF   =         0.00000000
  -V(xc)+E(xc)   XCENC  =       133.60439126
  PAW double counting   =      3391.63682834    -3537.96868267
  entropy T*S    EENTRO =        -0.00017429
  eigenvalues    EBANDS =      -589.89519416
  atomic energy  EATOM  =      4266.28978799
  Solvation  Ediel_sol  =         0.00000000
  ---------------------------------------------------
  free energy    TOTEN  =        -9.12901343 eV

  energy without entropy =       -9.12883914  energy(sigma->0) =       -9.12892629


--------------------------------------------------------------------------------------------------------




--------------------------------------- Iteration      1(   9)  ---------------------------------------


    POTLOK:  cpu time    0.0497: real time    0.0501
    SETDIJ:  cpu time    0.0038: real time    0.0038
     EDDAV:  cpu time    0.3255: real time    0.3256
       DOS:  cpu time    0.0005: real time    0.0005
    CHARGE:  cpu time    0.0374: real time    0.0374
    MIXING:  cpu time    0.0029: real time    0.0029
    --------------------------------------------
      LOOP:  cpu time    0.4198: real time    0.4203

 eigenvalue-minimisations  :  1656
 total energy-change (2. order) : 0.2684777E-03  (-0.5011781E-03)
 number of electron      38.0000018 magnetization 
 augmentation part       16.2300915 magnetization 

 Broyden mixing:
  rms(total) = 0.92924E-02    rms(broyden)= 0.92924E-02
  rms(prec ) = 0.16312E-01
  weight for this iteration     100.00

 eigenvalues of (default mixing * dielectric matrix)
  average eigenvalue GAMMA=   1.8568
  2.6511  2.2185  1.2789  1.2789

 Free energy of the ion-electron system (eV)
  ---------------------------------------------------
  alpha Z        PSCENC =       107.19987519
  Ewald energy   TEWEN  =     -2565.77789445
  -Hartree energ DENC   =     -1214.89407601
  -exchange      EXHF   =         0.00000000
  -V(xc)+E(xc)   XCENC  =       133.63194032
  PAW double counting   =      3397.03615847    -3543.22162773
  entropy T*S    EENTRO =        -0.00017711
  eigenvalues    EBANDS =      -589.39273161
  atomic energy  EATOM  =      4266.28978799
  Solvation  Ediel_sol  =         0.00000000
  ---------------------------------------------------
  free energy    TOTEN  =        -9.12874496 eV

  energy without entropy =       -9.12856784  energy(sigma->0) =       -9.12865640


--------------------------------------------------------------------------------------------------------




--------------------------------------- Iteration      1(  10)  ---------------------------------------


    POTLOK:  cpu time    0.0511: real time    0.0520
    SETDIJ:  cpu time    0.0043: real time    0.0043
     EDDAV:  cpu time    0.3434: real time    0.3436
       DOS:  cpu time    0.0005: real time    0.0005
    CHARGE:  cpu time    0.0362: real time    0.0362
    MIXING:  cpu time    0.0028: real time    0.0028
    --------------------------------------------
      LOOP:  cpu time    0.4382: real time    0.4394

 eigenvalue-minimisations  :  1874
 total energy-change (2. order) :-0.6282399E-04  (-0.6992581E-04)
 number of electron      38.0000018 magnetization 
 augmentation part       16.2287945 magnetization 

 Broyden mixing:
  rms(total) = 0.42840E-02    rms(broyden)= 0.42840E-02
  rms(prec ) = 0.58118E-02
  weight for this iteration     100.00

 eigenvalues of (default mixing * dielectric matrix)
  average eigenvalue GAMMA=   1.8320
  2.6101  2.1021  2.1021  1.0151  1.3305

 Free energy of the ion-electron system (eV)
  ---------------------------------------------------
  alpha Z        PSCENC =       107.19987519
  Ewald energy   TEWEN  =     -2565.77789445
  -Hartree energ DENC   =     -1214.87002442
  -exchange      EXHF   =         0.00000000
  -V(xc)+E(xc)   XCENC  =       133.63765676
  PAW double counting   =      3397.28509485    -3543.27424139
  entropy T*S    EENTRO =        -0.00017556
  eigenvalues    EBANDS =      -589.61888673
  atomic energy  EATOM  =      4266.28978799
  Solvation  Ediel_sol  =         0.00000000
  ---------------------------------------------------
  free energy    TOTEN  =        -9.12880778 eV

  energy without entropy =       -9.12863222  energy(sigma->0) =       -9.12872000


--------------------------------------------------------------------------------------------------------




--------------------------------------- Iteration      1(  11)  ---------------------------------------


    POTLOK:  cpu time    0.0498: real time    0.0503
    SETDIJ:  cpu time    0.0037: real time    0.0037
     EDDAV:  cpu time    0.3063: real time    0.3064
       DOS:  cpu time    0.0005: real time    0.0005
    --------------------------------------------
      LOOP:  cpu time    0.3604: real time    0.3609

 eigenvalue-minimisations  :  1469
 total energy-change (2. order) : 0.7451490E-06  (-0.4644978E-05)
 number of electron      38.0000018 magnetization 
 augmentation part       16.2287945 magnetization 

 Free energy of the ion-electron system (eV)
  ---------------------------------------------------
  alpha Z        PSCENC =       107.19987519
  Ewald energy   TEWEN  =     -2565.77789445
  -Hartree energ DENC   =     -1214.83738456
  -exchange      EXHF   =         0.00000000
  -V(xc)+E(xc)   XCENC  =       133.63779372
  PAW double counting   =      3398.87738303    -3544.87004498
  entropy T*S    EENTRO =        -0.00017602
  eigenvalues    EBANDS =      -589.64814695
  atomic energy  EATOM  =      4266.28978799
  Solvation  Ediel_sol  =         0.00000000
  ---------------------------------------------------
  free energy    TOTEN  =        -9.12880704 eV

  energy without entropy =       -9.12863101  energy(sigma->0) =       -9.12871902


--------------------------------------------------------------------------------------------------------




 average (electrostatic) potential at core
  the test charge radii are     1.0856  1.1045  0.9254
  (the norm of the test charge is              1.0000)
       1-107.0645       2 -35.9933       3 -47.7493       4 -47.7493
 
 
 
 E-fermi :   2.4393     XC(G=0):  -8.1728     alpha+bet : -8.2407


 k-point     1 :       0.0000    0.0000    0.0000
  band No.  band energies     occupation 
      1     -28.7331      2.00000
      2     -21.9551      2.00000
      3     -21.9551      2.00000
      4     -21.9551      2.00000
      5     -21.9447      2.00000
      6     -21.9447      2.00000
      7     -21.9447      2.00000
      8     -18.8684      2.00000
      9     -18.8684      2.00000
     10     -18.8684      2.00000
     11     -18.8650      2.00000
     12     -18.8650      2.00000
     13     -12.2545      2.00000
     14     -12.2545      2.00000
     15     -12.2545      2.00000
     16      -7.1713      2.00000
     17       2.4132      1.53846
     18       2.4132      1.53839
     19       2.4132      1.53839
     20       2.4212      1.39099
     21       5.0945      0.00000
     22       5.0945      0.00000
     23       5.0945      0.00000

 k-point     2 :       0.1250    0.0000    0.0000
  band No.  band energies     occupation 
      1     -28.7330      2.00000
      2     -21.9547      2.00000
      3     -21.9547      2.00000
      4     -21.9547      2.00000
      5     -21.9451      2.00000
      6     -21.9451      2.00000
      7     -21.9451      2.00000
      8     -18.8685      2.00000
      9     -18.8683      2.00000
     10     -18.8683      2.00000
     11     -18.8650      2.00000
     12     -18.8650      2.00000
     13     -12.2580      2.00000
     14     -12.2545      2.00000
     15     -12.2545      2.00000
     16      -7.1402      2.00000
     17       1.4718      2.00000
     18       2.3138      1.99961
     19       2.3138      1.99961
     20       3.3041      0.00000
     21       5.2142      0.00000
     22       5.2566      0.00000
     23       5.2566      0.00000

 k-point     3 :       0.2500    0.0000    0.0000
  band No.  band energies     occupation 
      1     -28.7329      2.00000
      2     -21.9536      2.00000
      3     -21.9536      2.00000
      4     -21.9535      2.00000
      5     -21.9463      2.00000
      6     -21.9463      2.00000
      7     -21.9462      2.00000
      8     -18.8688      2.00000
      9     -18.8682      2.00000
     10     -18.8682      2.00000
     11     -18.8650      2.00000
     12     -18.8650      2.00000
     13     -12.2663      2.00000
     14     -12.2545      2.00000
     15     -12.2545      2.00000
     16      -7.0635      2.00000
     17       0.6853      2.00000
     18       2.1087      2.00000
     19       2.1087      2.00000
     20       3.7411      0.00000
     21       5.6177      0.00000
     22       5.6177      0.00000
     23       5.8985      0.00000

 k-point     4 :       0.3750    0.0000    0.0000
  band No.  band energies     occupation 
      1     -28.7328      2.00000
      2     -21.9519      2.00000
      3     -21.9519      2.00000
      4     -21.9518      2.00000
      5     -21.9479      2.00000
      6     -21.9479      2.00000
      7     -21.9479      2.00000
      8     -18.8692      2.00000
      9     -18.8682      2.00000
     10     -18.8682      2.00000
     11     -18.8650      2.00000
     12     -18.8650      2.00000
     13     -12.2744      2.00000
     14     -12.2546      2.00000
     15     -12.2546      2.00000
     16      -6.9842      2.00000
     17       0.1649      2.00000
     18       1.9368      2.00000
     19       1.9368      2.00000
     20       3.8429      0.00000
     21       5.9682      0.00000
     22       5.9682      0.00000
     23       6.8032      0.00000

 k-point     5 :       0.5000    0.0000    0.0000
  band No.  band energies     occupation 
      1     -28.7328      2.00000
      2     -21.9504      2.00000
      3     -21.9503      2.00000
      4     -21.9503      2.00000
      5     -21.9496      2.00000
      6     -21.9496      2.00000
      7     -21.9493      2.00000
      8     -18.8693      2.00000
      9     -18.8681      2.00000
     10     -18.8681      2.00000
     11     -18.8650      2.00000
     12     -18.8650      2.00000
     13     -12.2777      2.00000
     14     -12.2546      2.00000
     15     -12.2546      2.00000
     16      -6.9506      2.00000
     17      -0.0179      2.00000
     18       1.8725      2.00000
     19       1.8725      2.00000
     20       3.8694      0.00000
     21       6.1234      0.00000
     22       6.1234      0.00000
     23       6.7316      0.00000

 k-point     6 :       0.1250    0.1250    0.0000
  band No.  band energies     occupation 
      1     -28.7330      2.00000
      2     -21.9553      2.00000
      3     -21.9553      2.00000
      4     -21.9532      2.00000
      5     -21.9465      2.00000
      6     -21.9446      2.00000
      7     -21.9446      2.00000
      8     -18.8686      2.00000
      9     -18.8683      2.00000
     10     -18.8683      2.00000
     11     -18.8651      2.00000
     12     -18.8649      2.00000
     13     -12.2576      2.00000
     14     -12.2552      2.00000
     15     -12.2552      2.00000
     16      -7.1311      2.00000
     17       1.3931      2.00000
     18       2.2353      2.00000
     19       2.2354      2.00000
     20       3.5161      0.00000
     21       4.8006      0.00000
     22       5.5165      0.00000
     23       5.5165      0.00000

 k-point     7 :       0.2500    0.1250    0.0000
  band No.  band energies     occupation 
      1     -28.7329      2.00000
      2     -21.9550      2.00000
      3     -21.9550      2.00000
      4     -21.9513      2.00000
      5     -21.9485      2.00000
      6     -21.9449      2.00000
      7     -21.9449      2.00000
      8     -18.8688      2.00000
      9     -18.8682      2.00000
     10     -18.8682      2.00000
     11     -18.8651      2.00000
     12     -18.8649      2.00000
     13     -12.2636      2.00000
     14     -12.2558      2.00000
     15     -12.2553      2.00000
     16      -7.0725      2.00000
     17       0.8395      2.00000
     18       2.0242      2.00000
     19       2.0568      2.00000
     20       3.9906      0.00000
     21       4.8374      0.00000
     22       5.9322      0.00000
     23       5.9591      0.00000

 k-point     8 :       0.3750    0.1250    0.0000
  band No.  band energies     occupation 
      1     -28.7328      2.00000
      2     -21.9540      2.00000
      3     -21.9539      2.00000
      4     -21.9507      2.00000
      5     -21.9491      2.00000
      6     -21.9459      2.00000
      7     -21.9459      2.00000
      8     -18.8691      2.00000
      9     -18.8682      2.00000
     10     -18.8681      2.00000
     11     -18.8651      2.00000
     12     -18.8649      2.00000
     13     -12.2712      2.00000
     14     -12.2558      2.00000
     15     -12.2556      2.00000
     16      -6.9971      2.00000
     17       0.3469      2.00000
     18       1.7625      2.00000
     19       1.8977      2.00000
     20       4.1558      0.00000
     21       5.4162      0.00000
     22       6.1535      0.00000
     23       6.2246      0.00000

 k-point     9 :       0.5000    0.1250    0.0000
  band No.  band energies     occupation 
      1     -28.7328      2.00000
      2     -21.9528      2.00000
      3     -21.9523      2.00000
      4     -21.9522      2.00000
      5     -21.9476      2.00000
      6     -21.9475      2.00000
      7     -21.9471      2.00000
      8     -18.8692      2.00000
      9     -18.8683      2.00000
     10     -18.8681      2.00000
     11     -18.8650      2.00000
     12     -18.8649      2.00000
     13     -12.2757      2.00000
     14     -12.2565      2.00000
     15     -12.2553      2.00000
     16      -6.9493      2.00000
     17       0.0963      2.00000
     18       1.5917      2.00000
     19       1.8303      2.00000
     20       4.2459      0.00000
     21       5.6126      0.00000
     22       6.3113      0.00000
     23       6.6735      0.00000

 k-point    10 :      -0.3750    0.1250    0.0000
  band No.  band energies     occupation 
      1     -28.7328      2.00000
      2     -21.9543      2.00000
      3     -21.9504      2.00000
      4     -21.9504      2.00000
      5     -21.9495      2.00000
      6     -21.9493      2.00000
      7     -21.9455      2.00000
      8     -18.8692      2.00000
      9     -18.8683      2.00000
     10     -18.8681      2.00000
     11     -18.8650      2.00000
     12     -18.8649      2.00000
     13     -12.2747      2.00000
     14     -12.2572      2.00000
     15     -12.2546      2.00000
     16      -6.9592      2.00000
     17       0.1486      2.00000
     18       1.5712      2.00000
     19       1.8802      2.00000
     20       4.2842      0.00000
     21       5.6695      0.00000
     22       6.0963      0.00000
     23       6.8020      0.00000

 k-point    11 :      -0.2500    0.1250    0.0000
  band No.  band energies     occupation 
      1     -28.7329      2.00000
      2     -21.9553      2.00000
      3     -21.9517      2.00000
      4     -21.9515      2.00000
      5     -21.9482      2.00000
      6     -21.9482      2.00000
      7     -21.9446      2.00000
      8     -18.8689      2.00000
      9     -18.8683      2.00000
     10     -18.8682      2.00000
     11     -18.8651      2.00000
     12     -18.8649      2.00000
     13     -12.2689      2.00000
     14     -12.2572      2.00000
     15     -12.2541      2.00000
     16      -7.0204      2.00000
     17       0.4857      2.00000
     18       1.7194      2.00000
     19       2.0324      2.00000
     20       4.2107      0.00000
     21       5.6374      0.00000
     22       5.6888      0.00000
     23       6.0552      0.00000

 k-point    12 :      -0.1250    0.1250    0.0000
  band No.  band energies     occupation 
      1     -28.7330      2.00000
      2     -21.9554      2.00000
      3     -21.9535      2.00000
      4     -21.9534      2.00000
      5     -21.9464      2.00000
      6     -21.9464      2.00000
      7     -21.9444      2.00000
      8     -18.8687      2.00000
      9     -18.8683      2.00000
     10     -18.8683      2.00000
     11     -18.8651      2.00000
     12     -18.8649      2.00000
     13     -12.2619      2.00000
     14     -12.2561      2.00000
     15     -12.2540      2.00000
     16      -7.0951      2.00000
     17       1.0043      2.00000
     18       2.0228      2.00000
     19       2.2188      2.00000
     20       3.8325      0.00000
     21       5.1837      0.00000
     22       5.3406      0.00000
     23       5.8211      0.00000

 k-point    13 :       0.2500    0.2500    0.0000
  band No.  band energies     occupation 
      1     -28.7329      2.00000
      2     -21.9556      2.00000
      3     -21.9556      2.00000
      4     -21.9509      2.00000
      5     -21.9487      2.00000
      6     -21.9443      2.00000
      7     -21.9443      2.00000
      8     -18.8691      2.00000
      9     -18.8681      2.00000
     10     -18.8681      2.00000
     11     -18.8651      2.00000
     12     -18.8647      2.00000
     13     -12.2643      2.00000
     14     -12.2571      2.00000
     15     -12.2571      2.00000
     16      -7.0423      2.00000
     17       0.7065      2.00000
     18       1.9226      2.00000
     19       1.9226      2.00000
     20       4.2310      0.00000
     21       4.2926      0.00000
     22       6.4275      0.00000
     23       6.5221      0.00000

 k-point    14 :       0.3750    0.2500    0.0000
  band No.  band energies     occupation 
      1     -28.7328      2.00000
      2     -21.9554      2.00000
      3     -21.9554      2.00000
      4     -21.9532      2.00000
      5     -21.9464      2.00000
      6     -21.9445      2.00000
      7     -21.9445      2.00000
      8     -18.8694      2.00000
      9     -18.8681      2.00000
     10     -18.8680      2.00000
     11     -18.8651      2.00000
     12     -18.8647      2.00000
     13     -12.2686      2.00000
     14     -12.2581      2.00000
     15     -12.2576      2.00000
     16      -6.9899      2.00000
     17       0.4716      2.00000
     18       1.6335      2.00000
     19       1.7949      2.00000
     20       4.2205      0.00000
     21       4.6047      0.00000
     22       6.2072      0.00000
     23       6.7867      0.00000

 k-point    15 :       0.5000    0.2500    0.0000
  band No.  band energies     occupation 
      1     -28.7328      2.00000
      2     -21.9552      2.00000
      3     -21.9543      2.00000
      4     -21.9541      2.00000
      5     -21.9456      2.00000
      6     -21.9456      2.00000
      7     -21.9446      2.00000
      8     -18.8693      2.00000
      9     -18.8683      2.00000
     10     -18.8680      2.00000
     11     -18.8650      2.00000
     12     -18.8648      2.00000
     13     -12.2715      2.00000
     14     -12.2604      2.00000
     15     -12.2572      2.00000
     16      -6.9460      2.00000
     17       0.3526      2.00000
     18       1.2342      2.00000
     19       1.7359      2.00000
     20       4.3304      0.00000
     21       5.4709      0.00000
     22       5.9057      0.00000
     23       6.8077      0.00000

 k-point    16 :      -0.3750    0.2500    0.0000
  band No.  band energies     occupation 
      1     -28.7328      2.00000
      2     -21.9561      2.00000
      3     -21.9526      2.00000
      4     -21.9526      2.00000
      5     -21.9473      2.00000
      6     -21.9472      2.00000
      7     -21.9437      2.00000
      8     -18.8690      2.00000
      9     -18.8686      2.00000
     10     -18.8680      2.00000
     11     -18.8649      2.00000
     12     -18.8649      2.00000
     13     -12.2713      2.00000
     14     -12.2625      2.00000
     15     -12.2559      2.00000
     16      -6.9367      2.00000
     17       0.3632      2.00000
     18       1.0281      2.00000
     19       1.7706      2.00000
     20       4.6203      0.00000
     21       5.6701      0.00000
     22       6.5219      0.00000
     23       6.5545      0.00000

 k-point    17 :      -0.2500    0.2500    0.0000
  band No.  band energies     occupation 
      1     -28.7328      2.00000
      2     -21.9561      2.00000
      3     -21.9505      2.00000
      4     -21.9504      2.00000
      5     -21.9495      2.00000
      6     -21.9493      2.00000
      7     -21.9437      2.00000
      8     -18.8689      2.00000
      9     -18.8685      2.00000
     10     -18.8681      2.00000
     11     -18.8650      2.00000
     12     -18.8648      2.00000
     13     -12.2701      2.00000
     14     -12.2613      2.00000
     15     -12.2546      2.00000
     16      -6.9678      2.00000
     17       0.3933      2.00000
     18       1.2241      2.00000
     19       1.8880      2.00000
     20       4.8205      0.00000
     21       5.6330      0.00000
     22       5.8914      0.00000
     23       6.0678      0.00000

 k-point    18 :       0.3750    0.3750    0.0000
  band No.  band energies     occupation 
      1     -28.7328      2.00000
      2     -21.9560      2.00000
      3     -21.9560      2.00000
      4     -21.9553      2.00000
      5     -21.9442      2.00000
      6     -21.9440      2.00000
      7     -21.9440      2.00000
      8     -18.8697      2.00000
      9     -18.8679      2.00000
     10     -18.8679      2.00000
     11     -18.8650      2.00000
     12     -18.8645      2.00000
     13     -12.2698      2.00000
     14     -12.2589      2.00000
     15     -12.2589      2.00000
     16      -6.9670      2.00000
     17       0.4133      2.00000
     18       1.6957      2.00000
     19       1.6957      2.00000
     20       3.9182      0.00000
     21       4.1211      0.00000
     22       6.8447      0.00000
     23       7.2939      0.00000

 k-point    19 :       0.5000    0.3750    0.0000
  band No.  band energies     occupation 
      1     -28.7327      2.00000
      2     -21.9567      2.00000
      3     -21.9557      2.00000
      4     -21.9556      2.00000
      5     -21.9443      2.00000
      6     -21.9443      2.00000
      7     -21.9429      2.00000
      8     -18.8698      2.00000
      9     -18.8680      2.00000
     10     -18.8679      2.00000
     11     -18.8650      2.00000
     12     -18.8646      2.00000
     13     -12.2707      2.00000
     14     -12.2609      2.00000
     15     -12.2590      2.00000
     16      -6.9420      2.00000
     17       0.4128      2.00000
     18       1.3618      2.00000
     19       1.6503      2.00000
     20       3.9757      0.00000
     21       4.3764      0.00000
     22       6.9236      0.00000
     23       7.3775      0.00000

 k-point    20 :      -0.3750    0.3750    0.0000
  band No.  band energies     occupation 
      1     -28.7327      2.00000
      2     -21.9569      2.00000
      3     -21.9545      2.00000
      4     -21.9544      2.00000
      5     -21.9455      2.00000
      6     -21.9454      2.00000
      7     -21.9428      2.00000
      8     -18.8694      2.00000
      9     -18.8683      2.00000
     10     -18.8679      2.00000
     11     -18.8649      2.00000
     12     -18.8647      2.00000
     13     -12.2683      2.00000
     14     -12.2654      2.00000
     15     -12.2577      2.00000
     16      -6.9296      2.00000
     17       0.5902      2.00000
     18       0.8308      2.00000
     19       1.6788      2.00000
     20       4.2166      0.00000
     21       5.3528      0.00000
     22       6.5911      0.00000
     23       7.1352      0.00000

 k-point    21 :       0.5000    0.5000    0.0000
  band No.  band energies     occupation 
      1     -28.7327      2.00000
      2     -21.9571      2.00000
      3     -21.9561      2.00000
      4     -21.9561      2.00000
      5     -21.9438      2.00000
      6     -21.9438      2.00000
      7     -21.9423      2.00000
      8     -18.8700      2.00000
      9     -18.8679      2.00000
     10     -18.8679      2.00000
     11     -18.8649      2.00000
     12     -18.8645      2.00000
     13     -12.2718      2.00000
     14     -12.2597      2.00000
     15     -12.2597      2.00000
     16      -6.9402      2.00000
     17       0.3614      2.00000
     18       1.6170      2.00000
     19       1.6170      2.00000
     20       3.7854      0.00000
     21       3.8971      0.00000
     22       7.5024      0.00000
     23       7.6046      0.00000

 k-point    22 :       0.3750    0.2500    0.1250
  band No.  band energies     occupation 
      1     -28.7329      2.00000
      2     -21.9558      2.00000
      3     -21.9538      2.00000
      4     -21.9508      2.00000
      5     -21.9489      2.00000
      6     -21.9461      2.00000
      7     -21.9441      2.00000
      8     -18.8691      2.00000
      9     -18.8682      2.00000
     10     -18.8681      2.00000
     11     -18.8651      2.00000
     12     -18.8648      2.00000
     13     -12.2673      2.00000
     14     -12.2583      2.00000
     15     -12.2552      2.00000
     16      -7.0174      2.00000
     17       0.5570      2.00000
     18       1.6574      2.00000
     19       1.9362      2.00000
     20       4.4848      0.00000
     21       4.8092      0.00000
     22       5.9350      0.00000
     23       6.3360      0.00000

 k-point    23 :       0.5000    0.2500    0.1250
  band No.  band energies     occupation 
      1     -28.7328      2.00000
      2     -21.9557      2.00000
      3     -21.9529      2.00000
      4     -21.9520      2.00000
      5     -21.9479      2.00000
      6     -21.9467      2.00000
      7     -21.9442      2.00000
      8     -18.8691      2.00000
      9     -18.8684      2.00000
     10     -18.8681      2.00000
     11     -18.8650      2.00000
     12     -18.8648      2.00000
     13     -12.2713      2.00000
     14     -12.2599      2.00000
     15     -12.2558      2.00000
     16      -6.9613      2.00000
     17       0.3436      2.00000
     18       1.3407      2.00000
     19       1.7754      2.00000
     20       4.6971      0.00000
     21       5.3928      0.00000
     22       5.6890      0.00000
     23       6.6915      0.00000

 k-point    24 :      -0.3750    0.2500    0.1250
  band No.  band energies     occupation 
      1     -28.7328      2.00000
      2     -21.9551      2.00000
      3     -21.9543      2.00000
      4     -21.9502      2.00000
      5     -21.9497      2.00000
      6     -21.9452      2.00000
      7     -21.9450      2.00000
      8     -18.8691      2.00000
      9     -18.8685      2.00000
     10     -18.8680      2.00000
     11     -18.8649      2.00000
     12     -18.8649      2.00000
     13     -12.2730      2.00000
     14     -12.2601      2.00000
     15     -12.2563      2.00000
[...]
     14     -12.5427      2.00000
     15     -12.5427      2.00000
     16      -7.1841      2.00000
     17       0.2227      2.00000
     18       1.4659      2.00000
     19       1.4659      2.00000
     20       3.6467      0.00000
     21       3.7692      0.00000
     22       6.4085      0.00000
     23       6.9998      0.00000

 k-point    19 :       0.5000    0.3750    0.0000
  band No.  band energies     occupation 
      1     -29.0241      2.00000
      2     -22.2505      2.00000
      3     -22.2497      2.00000
      4     -22.2496      2.00000
      5     -22.2403      2.00000
      6     -22.2403      2.00000
      7     -22.2392      2.00000
      8     -19.1380      2.00000
      9     -19.1367      2.00000
     10     -19.1366      2.00000
     11     -19.1339      2.00000
     12     -19.1335      2.00000
     13     -12.5520      2.00000
     14     -12.5443      2.00000
     15     -12.5427      2.00000
     16      -7.1624      2.00000
     17       0.2244      2.00000
     18       1.1451      2.00000
     19       1.4235      2.00000
     20       3.6719      0.00000
     21       4.0456      0.00000
     22       6.5023      0.00000
     23       7.0487      0.00000

 k-point    20 :      -0.3750    0.3750    0.0000
  band No.  band energies     occupation 
      1     -29.0240      2.00000
      2     -22.2507      2.00000
      3     -22.2487      2.00000
      4     -22.2486      2.00000
      5     -22.2413      2.00000
      6     -22.2412      2.00000
      7     -22.2391      2.00000
      8     -19.1377      2.00000
      9     -19.1369      2.00000
     10     -19.1366      2.00000
     11     -19.1338      2.00000
     12     -19.1336      2.00000
     13     -12.5501      2.00000
     14     -12.5477      2.00000
     15     -12.5417      2.00000
     16      -7.1523      2.00000
     17       0.3970      2.00000
     18       0.6351      2.00000
     19       1.4561      2.00000
     20       3.8925      0.00000
     21       4.9998      0.00000
     22       6.1827      0.00000
     23       6.7130      0.00000

 k-point    21 :       0.5000    0.5000    0.0000
  band No.  band energies     occupation 
      1     -29.0240      2.00000
      2     -22.2509      2.00000
      3     -22.2501      2.00000
      4     -22.2500      2.00000
      5     -22.2399      2.00000
      6     -22.2399      2.00000
      7     -22.2387      2.00000
      8     -19.1382      2.00000
      9     -19.1366      2.00000
     10     -19.1366      2.00000
     11     -19.1339      2.00000
     12     -19.1335      2.00000
     13     -12.5529      2.00000
     14     -12.5433      2.00000
     15     -12.5433      2.00000
     16      -7.1603      2.00000
     17       0.1743      2.00000
     18       1.3891      2.00000
     19       1.3891      2.00000
     20       3.5166      0.00000
     21       3.5566      0.00000
     22       7.1117      0.00000
     23       7.3030      0.00000

 k-point    22 :       0.3750    0.2500    0.1250
  band No.  band energies     occupation 
      1     -29.0241      2.00000
      2     -22.2497      2.00000
      3     -22.2481      2.00000
      4     -22.2456      2.00000
      5     -22.2441      2.00000
      6     -22.2418      2.00000
      7     -22.2401      2.00000
      8     -19.1375      2.00000
      9     -19.1369      2.00000
     10     -19.1368      2.00000
     11     -19.1340      2.00000
     12     -19.1337      2.00000
     13     -12.5492      2.00000
     14     -12.5421      2.00000
     15     -12.5397      2.00000
     16      -7.2289      2.00000
     17       0.3558      2.00000
     18       1.4315      2.00000
     19       1.7081      2.00000
     20       4.0893      0.00000
     21       4.5099      0.00000
     22       5.5707      0.00000
     23       6.0033      0.00000

 k-point    23 :       0.5000    0.2500    0.1250
  band No.  band energies     occupation 
      1     -29.0241      2.00000
      2     -22.2497      2.00000
      3     -22.2474      2.00000
      4     -22.2467      2.00000
      5     -22.2432      2.00000
      6     -22.2423      2.00000
      7     -22.2402      2.00000
      8     -19.1375      2.00000
      9     -19.1370      2.00000
     10     -19.1367      2.00000
     11     -19.1339      2.00000
     12     -19.1337      2.00000
     13     -12.5523      2.00000
     14     -12.5434      2.00000
     15     -12.5402      2.00000
     16      -7.1807      2.00000
     17       0.1609      2.00000
     18       1.1261      2.00000
     19       1.5550      2.00000
     20       4.3206      0.00000
     21       5.0443      0.00000
     22       5.3325      0.00000
     23       6.3260      0.00000

 k-point    24 :      -0.3750    0.2500    0.1250
  band No.  band energies     occupation 
      1     -29.0241      2.00000
      2     -22.2492      2.00000
      3     -22.2486      2.00000
      4     -22.2451      2.00000
      5     -22.2448      2.00000
      6     -22.2410      2.00000
      7     -22.2409      2.00000
      8     -19.1375      2.00000
      9     -19.1371      2.00000
     10     -19.1367      2.00000
     11     -19.1338      2.00000
     12     -19.1338      2.00000
     13     -12.5537      2.00000
     14     -12.5436      2.00000
     15     -12.5406      2.00000
     16      -7.1605      2.00000
     17       0.0897      2.00000
     18       1.0147      2.00000
     19       1.4897      2.00000
     20       4.3999      0.00000
     21       4.9210      0.00000
     22       6.1280      0.00000
     23       6.2598      0.00000

 k-point    25 :       0.5000    0.3750    0.1250
  band No.  band energies     occupation 
      1     -29.0241      2.00000
      2     -22.2501      2.00000
      3     -22.2492      2.00000
      4     -22.2484      2.00000
      5     -22.2415      2.00000
      6     -22.2404      2.00000
      7     -22.2399      2.00000
      8     -19.1378      2.00000
      9     -19.1368      2.00000
     10     -19.1366      2.00000
     11     -19.1339      2.00000
     12     -19.1336      2.00000
     13     -12.5513      2.00000
     14     -12.5439      2.00000
     15     -12.5421      2.00000
     16      -7.1735      2.00000
     17       0.2428      2.00000
     18       1.1752      2.00000
     19       1.3697      2.00000
     20       4.1883      0.00000
     21       4.2419      0.00000
     22       5.7299      0.00000
     23       6.9332      0.00000

 k-point    26 :      -0.3750    0.3750    0.1250
  band No.  band energies     occupation 
      1     -29.0240      2.00000
      2     -22.2505      2.00000
      3     -22.2496      2.00000
      4     -22.2469      2.00000
      5     -22.2430      2.00000
      6     -22.2400      2.00000
      7     -22.2395      2.00000
      8     -19.1376      2.00000
      9     -19.1371      2.00000
     10     -19.1366      2.00000
     11     -19.1338      2.00000
     12     -19.1337      2.00000
     13     -12.5506      2.00000
     14     -12.5463      2.00000
     15     -12.5424      2.00000
     16      -7.1536      2.00000
     17       0.3466      2.00000
     18       0.7827      2.00000
     19       1.2855      2.00000
     20       4.3300      0.00000
     21       5.0705      0.00000
     22       5.5141      0.00000
     23       6.3696      0.00000

 k-point    27 :      -0.2500    0.3750    0.1250
  band No.  band energies     occupation 
      1     -29.0241      2.00000
      2     -22.2504      2.00000
      3     -22.2489      2.00000
      4     -22.2451      2.00000
      5     -22.2448      2.00000
      6     -22.2408      2.00000
      7     -22.2395      2.00000
      8     -19.1373      2.00000
      9     -19.1373      2.00000
     10     -19.1366      2.00000
     11     -19.1338      2.00000
     12     -19.1337      2.00000
     13     -12.5504      2.00000
     14     -12.5470      2.00000
     15     -12.5414      2.00000
     16      -7.1566      2.00000
     17       0.3363      2.00000
     18       0.7160      2.00000
     19       1.3798      2.00000
     20       4.6326      0.00000
     21       5.2216      0.00000
     22       5.3762      0.00000
     23       6.1946      0.00000

 k-point    28 :      -0.3750    0.5000    0.1250
  band No.  band energies     occupation 
      1     -29.0240      2.00000
      2     -22.2509      2.00000
      3     -22.2500      2.00000
      4     -22.2486      2.00000
      5     -22.2414      2.00000
      6     -22.2398      2.00000
      7     -22.2389      2.00000
      8     -19.1379      2.00000
      9     -19.1368      2.00000
     10     -19.1366      2.00000
     11     -19.1338      2.00000
     12     -19.1336      2.00000
     13     -12.5515      2.00000
     14     -12.5447      2.00000
     15     -12.5436      2.00000
     16      -7.1542      2.00000
     17       0.2868      2.00000
     18       1.0854      2.00000
     19       1.1854      2.00000
     20       4.0742      0.00000
     21       4.0812      0.00000
     22       6.4228      0.00000
     23       6.7293      0.00000

 k-point    29 :      -0.2500    0.5000    0.2500
  band No.  band energies     occupation 
      1     -29.0240      2.00000
      2     -22.2510      2.00000
      3     -22.2500      2.00000
      4     -22.2450      2.00000
      5     -22.2450      2.00000
      6     -22.2395      2.00000
      7     -22.2392      2.00000
      8     -19.1374      2.00000
      9     -19.1374      2.00000
     10     -19.1366      2.00000
     11     -19.1338      2.00000
     12     -19.1337      2.00000
     13     -12.5481      2.00000
     14     -12.5481      2.00000
     15     -12.5440      2.00000
     16      -7.1480      2.00000
     17       0.6128      2.00000
     18       0.6128      2.00000
     19       1.0228      2.00000
     20       4.9341      0.00000
     21       5.2868      0.00000
     22       5.2868      0.00000
     23       5.5006      0.00000


--------------------------------------------------------------------------------------------------------


 soft charge-density along one line, spin component           1
         0         1         2         3         4         5         6         7         8         9
 total charge-density along one line
 
 pseudopotential strength for first ion, spin component:           1
-19.471  -0.000   0.000  -0.000  -0.000   5.086   0.000  -0.000
 -0.000 -19.471  -0.000  -0.000   0.000   0.000   5.086   0.000
  0.000  -0.000 -19.471  -0.000  -0.000  -0.000   0.000   5.086
 -0.000  -0.000  -0.000 -19.471  -0.000   0.000   0.000   0.000
 -0.000   0.000  -0.000  -0.000 -19.471   0.000  -0.000   0.000
  5.086   0.000  -0.000   0.000   0.000   5.254  -0.000   0.000
  0.000   5.086   0.000   0.000  -0.000  -0.000   5.254  -0.000
 -0.000   0.000   5.086   0.000   0.000   0.000  -0.000   5.254
  0.000   0.000   0.000   5.086   0.000  -0.000  -0.000  -0.000
  0.000  -0.000   0.000   0.000   5.086   0.000   0.000  -0.000
  0.000   0.000  -0.000   0.000  -0.000   0.000   0.000  -0.000
  0.000   0.000  -0.000   0.000  -0.000  -0.000  -0.000   0.000
 -0.000  -0.000   0.000  -0.000   0.000  -0.000  -0.000   0.000
 -0.000  -0.000  -0.000  -0.000  -0.000  -0.000  -0.000  -0.000
 -0.000  -0.000   0.000  -0.000  -0.000  -0.000  -0.000   0.000
 -0.000  -0.000   0.000  -0.000   0.000  -0.000  -0.000   0.000
 -0.000  -0.000  -0.000  -0.000  -0.000  -0.000  -0.000  -0.000
 -0.000  -0.000   0.000  -0.000  -0.000  -0.000  -0.000   0.000
 total augmentation occupancy for first ion, spin component:           1
  1.999   0.000   0.000   0.000   0.000   0.004   0.000  -0.000   0.000  -0.000  -0.000   0.000   0.000  -0.000   0.000   0.000
  0.000   1.999   0.000   0.000   0.000  -0.000   0.004   0.000   0.000  -0.000   0.000   0.000  -0.000  -0.000  -0.000   0.000
  0.000  -0.000   1.999   0.000   0.000   0.000   0.000   0.003   0.000   0.000   0.000  -0.000  -0.000  -0.000  -0.000  -0.000
  0.000   0.000  -0.000   1.999  -0.000  -0.000  -0.000   0.000   0.004  -0.000   0.000  -0.000   0.000   0.000   0.000  -0.000
  0.000   0.000   0.000  -0.000   1.999  -0.000  -0.000   0.000  -0.000   0.003   0.000   0.000   0.000   0.000  -0.000  -0.000
  0.004   0.000  -0.000  -0.000   0.000   0.001  -0.000  -0.000  -0.000  -0.000   0.000   0.000   0.000  -0.000  -0.000  -0.000
  0.000   0.004   0.000   0.000   0.000  -0.000   0.001   0.000   0.000  -0.000  -0.000   0.000   0.000   0.000  -0.000   0.000
  0.000   0.000   0.003   0.000   0.000  -0.000   0.000   0.001  -0.000  -0.000  -0.000   0.000  -0.000   0.000  -0.000  -0.000
  0.000   0.000   0.000   0.004  -0.000  -0.000   0.000   0.000   0.001   0.000  -0.000   0.000   0.000   0.000   0.000   0.000
  0.000   0.000   0.000  -0.000   0.003   0.000  -0.000  -0.000   0.000   0.001   0.000   0.000  -0.000   0.000  -0.000   0.000
  0.000  -0.000   0.000   0.000   0.000   0.000  -0.000  -0.000  -0.000   0.000   1.923   0.024  -0.000  -0.000  -0.000   0.000
  0.000  -0.000   0.000   0.000   0.000   0.000  -0.000   0.000   0.000   0.000   0.024   0.002  -0.000   0.000   0.000  -0.000
  0.000   0.000  -0.000  -0.000   0.000  -0.000  -0.000  -0.000   0.000   0.000   0.000   0.000   1.456  -0.000   0.000  -0.071
  0.000  -0.000   0.000  -0.000   0.000   0.000  -0.000  -0.000  -0.000  -0.000   0.000   0.000  -0.000   1.456   0.000   0.000
  0.000  -0.000  -0.000  -0.000   0.000   0.000   0.000   0.000  -0.000  -0.000   0.000  -0.000   0.000   0.000   1.456   0.000
 -0.000  -0.000   0.000   0.000   0.000  -0.000   0.000  -0.000   0.000   0.000   0.000   0.000  -0.071  -0.000   0.000   0.004
  0.000  -0.000   0.000  -0.000   0.000  -0.000   0.000   0.000   0.000   0.000  -0.000   0.000   0.000  -0.071   0.000  -0.000
 -0.000   0.000   0.000   0.000   0.000  -0.000   0.000   0.000   0.000   0.000   0.000   0.000   0.000   0.000  -0.071   0.000


------------------------ aborting loop because EDIFF is reached ----------------------------------------


    CHARGE:  cpu time    0.0359: real time    0.0360
    FORLOC:  cpu time    0.0055: real time    0.0055
    FORNL :  cpu time    0.0426: real time    0.0426
    STRESS:  cpu time    0.1654: real time    0.1654
    FORCOR:  cpu time    0.0567: real time    0.0567
    FORHAR:  cpu time    0.0153: real time    0.0153
    MIXING:  cpu time    0.0029: real time    0.0029
    OFIELD:  cpu time    0.0000: real time    0.0000

  FORCE on cell =-STRESS in cart. coord.  units (eV):
  Direction    XX          YY          ZZ          XY          YZ          ZX
  --------------------------------------------------------------------------------------
  Alpha Z   102.11721   102.11721   102.11721
  Ewald    -841.52375  -841.52375  -841.52375     0.00010     0.00010     0.00010
  Hartree   413.63694   413.63694   413.63694     0.00006     0.00006     0.00006
  E(xc)    -185.55904  -185.55904  -185.55904     0.00004     0.00004     0.00004
  Local     -80.23402   -80.23402   -80.23402    -0.00022    -0.00022    -0.00022
  n-local     5.22408     5.48133     2.26476     1.91685    -1.46016     0.77446
  augment   226.66844   226.66844   226.66844     0.00004     0.00004     0.00004
  Kinetic   361.40792   361.42626   358.88827     2.93777    -1.84524     1.27159
  Fock        0.00000     0.00000     0.00000     0.00000     0.00000     0.00000
  -------------------------------------------------------------------------------------
  Total       0.00333     0.00333     0.00333    -0.00000    -0.00000     0.00000
  in kB       0.04232     0.04232     0.04232    -0.00000    -0.00000     0.00000
  external pressure =        0.04 kB  Pullay stress =        0.00 kB


 VOLUME and BASIS-vectors are now :
 -----------------------------------------------------------------------------
  energy-cutoff  :      520.00
  volume of cell :      126.24
      direct lattice vectors                 reciprocal lattice vectors
     0.000000000  3.981588847  3.981588847    -0.125578009  0.125578009  0.125578009
     3.981588847  0.000000000  3.981588847     0.125578009 -0.125578009  0.125578009
     3.981588847  3.981588847  0.000000000     0.125578009  0.125578009 -0.125578009

  length of vectors
     5.630816947  5.630816947  5.630816947     0.217507492  0.217507492  0.217507492


 FORCES acting on ions
    electron-ion (+dipol)            ewald-force                    non-local-force                 convergence-correction
 -----------------------------------------------------------------------------------------------
   0.247E-03 0.247E-03 0.225E-03   -.656E-04 -.656E-04 -.656E-04   0.159E-21 0.159E-21 0.827E-23   -.830E-09 -.830E-09 -.685E-11
   0.851E-03 0.851E-03 0.839E-03   0.127E-03 0.127E-03 0.127E-03   0.254E-20 0.847E-21 0.000E+00   0.219E-07 0.219E-07 0.210E-07
   -.176E-04 -.176E-04 -.175E-04   -.952E-04 -.952E-04 -.952E-04   0.104E-16 0.867E-17 0.957E-17   0.363E-09 0.363E-09 0.188E-09
   0.129E-03 0.129E-03 0.129E-03   0.340E-04 0.340E-04 0.340E-04   -.121E-16 -.121E-16 -.797E-17   -.174E-08 -.174E-08 -.192E-08
 -----------------------------------------------------------------------------------------------
   0.121E-02 0.121E-02 0.118E-02   -.498E-15 0.812E-15 -.623E-16   -.173E-17 -.347E-17 0.160E-17   0.197E-07 0.197E-07 0.193E-07
 
 
 POSITION                                       TOTAL-FORCE (eV/Angst)
 -----------------------------------------------------------------------------------
      1.99079      1.99079      1.99079        -0.000000     -0.000000      0.000000
      5.97238      5.97238      5.97238         0.000000     -0.000000     -0.000000
     -0.00000     -0.00000      0.00000        -0.000000      0.000000     -0.000000
      3.98159      3.98159      3.98159        -0.000000      0.000000      0.000000
 -----------------------------------------------------------------------------------
    total drift:                                0.001209      0.001209      0.001175


--------------------------------------------------------------------------------------------------------



  FREE ENERGIE OF THE ION-ELECTRON SYSTEM (eV)
  ---------------------------------------------------
  free  energy   TOTEN  =        -9.14527889 eV

  energy  without entropy=       -9.14512026  energy(sigma->0) =       -9.14519957
 
 d Force = 0.0000000E+00[ 0.000E+00, 0.000E+00]  d Energy = 0.8408187E-05-0.841E-05
 d Force = 0.0000000E+00[ 0.000E+00, 0.000E+00]  d Ewald  =-0.5225484E+00 0.523E+00


--------------------------------------------------------------------------------------------------------


    POTLOK:  cpu time    0.0539: real time    0.0539


--------------------------------------------------------------------------------------------------------




--------------------------------------------------------------------------------------------------------


  
 reached required accuracy - stopping structural energy minimisation
     LOOP+:  cpu time    2.1989: real time    2.2103
    4ORBIT:  cpu time    0.0000: real time    0.0000

 total amount of memory used by VASP MPI-rank0    50200. kBytes
=======================================================================

   base      :      30000. kBytes
   nonl-proj :       5867. kBytes
   fftplans  :       3210. kBytes
   grid      :       5943. kBytes
   one-center:         15. kBytes
   wavefun   :       5165. kBytes
 
  
  
 General timing and accounting informations for this job:
 ========================================================
  
                  Total CPU time used (sec):       20.245
                            User time (sec):       19.763
                          System time (sec):        0.481
                         Elapsed time (sec):       20.383
  
                   Maximum memory used (kb):      105760.
                   Average memory used (kb):           0.
  
                          Minor page faults:        37241
                          Major page faults:            2
                 Voluntary context switches:          428
