<?xml version="1.0" encoding="ISO-8859-1"?>
<modeling>
 <generator>
  <i name="program" type="string">vasp </i>
  <i name="version" type="string">5.4.4.18Apr17-6-g9f103f2a35  </i>
  <i name="subversion" type="string">(build Jun 23 2019 17:35:09) complex            parallel </i>
  <i name="platform" type="string">LinuxIFC </i>
  <i name="date" type="string">2020 01 14 </i>
  <i name="time" type="string">23:08:22 </i>
 </generator>
 <incar>
  <i type="int" name="ISTART">     0</i>
  <i type="string" name="PREC">acc</i>
  <i type="string" name="ALGO"> Normal</i>
  <i type="int" name="ISPIN">     1</i>
  <i type="int" name="NELMIN">     5</i>
  <i type="int" name="IBRION">     2</i>
  <i name="EDIFF">      0.00001000</i>
  <i name="EDIFFG">     -0.00100000</i>
  <i type="int" name="NSW">   100</i>
  <i type="int" name="ISIF">     3</i>
  <i name="ENCUT">    520.00000000</i>
  <i type="logical" name="LREAL"> F  </i>
  <i type="logical" name="LPLANE"> T  </i>
  <i type="int" name="ISMEAR">     0</i>
  <i name="SIGMA">      0.05000000</i>
  <i type="logical" name="LWAVE"> F  </i>
  <i type="logical" name="LCHARG"> F  </i>
  <v type="int" name="KPOINT_BSE">    -1     0     0     0</v>
  <i type="string" name="GGA"> PE</i>
 </incar>
 <structure name="primitive_cell" >
  <crystal>
   <varray name="basis" >
    <v>       0.00000000       3.91764100       3.91764100 </v>
    <v>       3.91764100       0.00000000       3.91764100 </v>
    <v>       3.91764100       3.91764100       0.00000000 </v>
   </varray>
   <i name="volume">    120.25521083 </i>
   <varray name="rec_basis" >
    <v>      -0.12762783       0.12762783       0.12762783 </v>
    <v>       0.12762783      -0.12762783       0.12762783 </v>
    <v>       0.12762783       0.12762783      -0.12762783 </v>
   </varray>
  </crystal>
  <varray name="positions" >
   <v>       0.24999994       0.24999994       0.24999994 </v>
   <v>       0.00000000       0.00000000       0.00000000 </v>
   <v>       0.49999987       0.49999987       0.49999987 </v>
   <v>      -0.25000019      -0.25000019      -0.25000019 </v>
  </varray>
 </structure>
 <varray name="primitive_index" >
  <v type="int" >        1 </v>
  <v type="int" >        3 </v>
  <v type="int" >        4 </v>
  <v type="int" >        2 </v>
 </varray>
 <kpoints>
  <generation param="Gamma">
   <v type="int" name="divisions">       8        8        8 </v>
   <v name="usershift">      0.00000000       0.00000000       0.00000000 </v>
   <v name="genvec1">      0.12500000       0.00000000       0.00000000 </v>
   <v name="genvec2">      0.00000000       0.12500000       0.00000000 </v>
   <v name="genvec3">      0.00000000       0.00000000       0.12500000 </v>
   <v name="shift">      0.00000000       0.00000000       0.00000000 </v>
  </generation>
  <varray name="kpointlist" >
   <v>       0.00000000       0.00000000       0.00000000 </v>
   <v>       0.12500000       0.00000000       0.00000000 </v>
   <v>       0.25000000       0.00000000       0.00000000 </v>
   <v>       0.37500000       0.00000000       0.00000000 </v>
   <v>       0.50000000       0.00000000       0.00000000 </v>
   <v>       0.12500000       0.12500000       0.00000000 </v>
   <v>       0.25000000       0.12500000       0.00000000 </v>
   <v>       0.37500000       0.12500000       0.00000000 </v>
   <v>       0.50000000       0.12500000       0.00000000 </v>
   <v>      -0.37500000       0.12500000       0.00000000 </v>
   <v>      -0.25000000       0.12500000       0.00000000 </v>
   <v>      -0.12500000       0.12500000       0.00000000 </v>
   <v>       0.25000000       0.25000000       0.00000000 </v>
   <v>       0.37500000       0.25000000       0.00000000 </v>
   <v>       0.50000000       0.25000000       0.00000000 </v>
   <v>      -0.37500000       0.25000000       0.00000000 </v>
   <v>      -0.25000000       0.25000000       0.00000000 </v>
   <v>       0.37500000       0.37500000       0.00000000 </v>
   <v>       0.50000000       0.37500000       0.00000000 </v>
   <v>      -0.37500000       0.37500000       0.00000000 </v>
   <v>       0.50000000       0.50000000       0.00000000 </v>
   <v>       0.37500000       0.25000000       0.12500000 </v>
   <v>       0.50000000       0.25000000       0.12500000 </v>
   <v>      -0.37500000       0.25000000       0.12500000 </v>
   <v>       0.50000000       0.37500000       0.12500000 </v>
   <v>      -0.37500000       0.37500000       0.12500000 </v>
   <v>      -0.25000000       0.37500000       0.12500000 </v>
   <v>      -0.37500000       0.50000000       0.12500000 </v>
   <v>      -0.25000000       0.50000000       0.25000000 </v>
  </varray>
  <varray name="weights" >
   <v>       0.00195312 </v>
   <v>       0.01562500 </v>
   <v>       0.01562500 </v>
   <v>       0.01562500 </v>
   <v>       0.00781250 </v>
   <v>       0.01171875 </v>
   <v>       0.04687500 </v>
   <v>       0.04687500 </v>
   <v>       0.04687500 </v>
   <v>       0.04687500 </v>
   <v>       0.04687500 </v>
   <v>       0.02343750 </v>
   <v>       0.01171875 </v>
   <v>       0.04687500 </v>
   <v>       0.04687500 </v>
   <v>       0.04687500 </v>
   <v>       0.02343750 </v>
   <v>       0.01171875 </v>
   <v>       0.04687500 </v>
   <v>       0.02343750 </v>
   <v>       0.00585938 </v>
   <v>       0.04687500 </v>
   <v>       0.09375000 </v>
   <v>       0.04687500 </v>
   <v>       0.04687500 </v>
   <v>       0.09375000 </v>
   <v>       0.04687500 </v>
   <v>       0.02343750 </v>
   <v>       0.01171875 </v>
  </varray>
 </kpoints>
 <parameters>
  <separator name="general" >
   <i type="string" name="SYSTEM">unknown system</i>
   <i type="logical" name="LCOMPAT"> F  </i>
  </separator>
  <separator name="electronic" >
   <i type="string" name="PREC">acc</i>
   <i name="ENMAX">    520.00000000</i>
   <i name="ENAUG">    442.89900000</i>
   <i name="EDIFF">      0.00001000</i>
   <i type="int" name="IALGO">    38</i>
   <i type="int" name="IWAVPR">    11</i>
   <i type="int" name="NBANDS">    23</i>
   <i name="NELECT">     38.00000000</i>
   <i type="int" name="TURBO">     0</i>
   <i type="int" name="IRESTART">     0</i>
   <i type="int" name="NREBOOT">     0</i>
   <i type="int" name="NMIN">     0</i>
   <i name="EREF">      0.00000000</i>
   <separator name="electronic smearing" >
    <i type="int" name="ISMEAR">     0</i>
    <i name="SIGMA">      0.05000000</i>
    <i name="KSPACING">      0.50000000</i>
    <i type="logical" name="KGAMMA"> T  </i>
   </separator>
   <separator name="electronic projectors" >
    <i type="logical" name="LREAL"> F  </i>
    <v name="ROPT">      0.00000000      0.00000000      0.00000000</v>
    <i type="int" name="LMAXPAW">  -100</i>
    <i type="int" name="LMAXMIX">     2</i>
    <i type="logical" name="NLSPLINE"> F  </i>
   </separator>
   <separator name="electronic startup" >
    <i type="int" name="ISTART">     0</i>
    <i type="int" name="ICHARG">     2</i>
    <i type="int" name="INIWAV">     1</i>
   </separator>
   <separator name="electronic spin" >
    <i type="int" name="ISPIN">     1</i>
    <i type="logical" name="LNONCOLLINEAR"> F  </i>
    <v name="MAGMOM">      1.00000000      1.00000000      1.00000000      1.00000000</v>
    <i name="NUPDOWN">     -1.00000000</i>
    <i type="logical" name="LSORBIT"> F  </i>
    <v name="SAXIS">      0.00000000      0.00000000      1.00000000</v>
    <i type="logical" name="LSPIRAL"> F  </i>
    <v name="QSPIRAL">      0.00000000      0.00000000      0.00000000</v>
    <i type="logical" name="LZEROZ"> F  </i>
   </separator>
   <separator name="electronic exchange-correlation" >
    <i type="logical" name="LASPH"> F  </i>
    <i type="logical" name="LMETAGGA"> F  </i>
   </separator>
   <separator name="electronic convergence" >
    <i type="int" name="NELM">    60</i>
    <i type="int" name="NELMDL">    -5</i>
    <i type="int" name="NELMIN">     5</i>
    <i name="ENINI">    520.00000000</i>
    <separator name="electronic convergence detail" >
     <i type="logical" name="LDIAG"> T  </i>
     <i type="logical" name="LSUBROT"> F  </i>
     <i name="WEIMIN">      0.00100000</i>
     <i name="EBREAK">      0.00000011</i>
     <i name="DEPER">      0.30000000</i>
     <i type="int" name="NRMM">     4</i>
     <i name="TIME">      0.40000000</i>
    </separator>
   </separator>
   <separator name="electronic mixer" >
    <i name="AMIX">      0.40000000</i>
    <i name="BMIX">      1.00000000</i>
    <i name="AMIN">      0.10000000</i>
    <i name="AMIX_MAG">      1.60000000</i>
    <i name="BMIX_MAG">      1.00000000</i>
    <separator name="electronic mixer details" >
     <i type="int" name="IMIX">     4</i>
     <i type="logical" name="MIXFIRST"> F  </i>
     <i type="int" name="MAXMIX">   -45</i>
     <i name="WC">    100.00000000</i>
     <i type="int" name="INIMIX">     1</i>
     <i type="int" name="MIXPRE">     1</i>
     <i type="int" name="MREMOVE">     5</i>
    </separator>
   </separator>
   <separator name="electronic dipolcorrection" >
    <i type="logical" name="LDIPOL"> F  </i>
    <i type="logical" name="LMONO"> F  </i>
    <i type="int" name="IDIPOL">     0</i>
    <i name="EPSILON">      1.00000000</i>
    <v name="DIPOL">   -100.00000000   -100.00000000   -100.00000000</v>
    <i name="EFIELD">      0.00000000</i>
   </separator>
  </separator>
  <separator name="grids" >
   <i type="int" name="NGX">    42</i>
   <i type="int" name="NGY">    42</i>
   <i type="int" name="NGZ">    42</i>
   <i type="int" name="NGXF">    84</i>
   <i type="int" name="NGYF">    84</i>
   <i type="int" name="NGZF">    84</i>
   <i type="logical" name="ADDGRID"> F  </i>
  </separator>
  <separator name="ionic" >
   <i type="int" name="NSW">   100</i>
   <i type="int" name="IBRION">     2</i>
   <i type="int" name="MDALGO">     0</i>
   <i type="int" name="ISIF">     3</i>
   <i name="PSTRESS">      0.00000000</i>
   <i name="EDIFFG">     -0.00100000</i>
   <i type="int" name="NFREE">     1</i>
   <i name="POTIM">      0.50000000</i>
   <i name="SMASS">     -3.00000000</i>
   <i name="SCALEE">      1.00000000</i>
  </separator>
  <separator name="ionic md" >
   <i name="TEBEG">      0.00010000</i>
   <i name="TEEND">      0.00010000</i>
   <i type="int" name="NBLOCK">     1</i>
   <i type="int" name="KBLOCK">   100</i>
   <i type="int" name="NPACO">   256</i>
   <i name="APACO">     16.00000000</i>
  </separator>
  <separator name="symmetry" >
   <i type="int" name="ISYM">     2</i>
   <i name="SYMPREC">      0.00001000</i>
  </separator>
  <separator name="dos" >
   <i type="int" name="LORBIT">     0</i>
   <v name="RWIGS">     -1.00000000     -1.00000000     -1.00000000</v>
   <i type="int" name="NEDOS">   301</i>
   <i name="EMIN">     10.00000000</i>
   <i name="EMAX">    -10.00000000</i>
   <i name="EFERMI">      0.00000000</i>
  </separator>
  <separator name="writing" >
   <i type="int" name="NWRITE">     2</i>
   <i type="logical" name="LWAVE"> F  </i>
   <i type="logical" name="LDOWNSAMPLE"> F  </i>
   <i type="logical" name="LCHARG"> F  </i>
   <i type="logical" name="LPARD"> F  </i>
   <i type="logical" name="LVTOT"> F  </i>
   <i type="logical" name="LVHAR"> F  </i>
   <i type="logical" name="LELF"> F  </i>
   <i type="logical" name="LOPTICS"> F  </i>
   <v name="STM">      0.00000000      0.00000000      0.00000000      0.00000000      0.00000000      0.00000000      0.00000000</v>
  </separator>
  <separator name="performance" >
   <i type="int" name="NPAR">     1</i>
   <i type="int" name="NSIM">     4</i>
   <i type="int" name="NBLK">    -1</i>
   <i type="logical" name="LPLANE"> T  </i>
   <i type="logical" name="LSCALAPACK"> T  </i>
   <i type="logical" name="LSCAAWARE"> F  </i>
   <i type="logical" name="LSCALU"> F  </i>
   <i type="logical" name="LASYNC"> F  </i>
   <i type="logical" name="LORBITALREAL"> F  </i>
  </separator>
  <separator name="miscellaneous" >
   <i type="int" name="IDIOT">     3</i>
   <i type="int" name="ISPECIAL">     0</i>
   <i type="logical" name="LMUSIC"> F  </i>
   <v name="POMASS">    208.98000000     39.09800000     22.99000000</v>
   <v name="DARWINR">      0.00000000      0.00000000      0.00000000</v>
   <v name="DARWINV">      1.00000000      1.00000000      1.00000000</v>
   <i type="logical" name="LCORR"> T  </i>
  </separator>
  <i type="logical" name="GGA_COMPAT"> T  </i>
  <i type="logical" name="LBERRY"> F  </i>
  <i type="int" name="ICORELEVEL">     0</i>
  <i type="logical" name="LDAU"> F  </i>
  <i type="int" name="I_CONSTRAINED_M">     0</i>
  <separator name="electronic exchange-correlation" >
   <i type="string" name="GGA">PE</i>
   <i type="int" name="VOSKOWN">     0</i>
   <i type="logical" name="LHFCALC"> F  </i>
   <i type="string" name="PRECFOCK"></i>
   <i type="logical" name="LSYMGRAD"> F  </i>
   <i type="logical" name="LHFONE"> F  </i>
   <i type="logical" name="LRHFCALC"> F  </i>
   <i type="logical" name="LTHOMAS"> F  </i>
   <i type="logical" name="LMODELHF"> F  </i>
   <i name="ENCUT4O">     -1.00000000</i>
   <i type="int" name="EXXOEP">     0</i>
   <i type="int" name="FOURORBIT">     0</i>
   <i name="AEXX">      0.00000000</i>
   <i name="HFALPHA">      0.00000000</i>
   <i name="MCALPHA">      0.00000000</i>
   <i name="ALDAX">      1.00000000</i>
   <i name="AGGAX">      1.00000000</i>
   <i name="ALDAC">      1.00000000</i>
   <i name="AGGAC">      1.00000000</i>
   <i type="int" name="NKREDX">     1</i>
   <i type="int" name="NKREDY">     1</i>
   <i type="int" name="NKREDZ">     1</i>
   <i type="logical" name="SHIFTRED"> F  </i>
   <i type="logical" name="ODDONLY"> F  </i>
   <i type="logical" name="EVENONLY"> F  </i>
   <i type="int" name="LMAXFOCK">     0</i>
   <i type="int" name="NMAXFOCKAE">     0</i>
   <i type="logical" name="LFOCKAEDFT"> F  </i>
   <i name="HFSCREEN">      0.00000000</i>
   <i name="HFSCREENC">      0.00000000</i>
   <i type="int" name="NBANDSGWLOW">     0</i>
  </separator>
  <separator name="vdW DFT" >
   <i type="logical" name="LUSE_VDW"> F  </i>
   <i name="Zab_VDW">     -0.84910000</i>
   <i name="PARAM1">      0.12340000</i>
   <i name="PARAM2">      1.00000000</i>
   <i name="PARAM3">      0.00000000</i>
  </separator>
  <separator name="model GW" >
   <i type="int" name="MODEL_GW">     0</i>
   <i name="MODEL_EPS0">     18.03828163</i>
   <i name="MODEL_ALPHA">      1.00000000</i>
  </separator>
  <separator name="linear response parameters" >
   <i type="logical" name="LEPSILON"> F  </i>
   <i type="logical" name="LRPA"> F  </i>
   <i type="logical" name="LNABLA"> F  </i>
   <i type="logical" name="LVEL"> F  </i>
   <i type="int" name="KINTER">     0</i>
   <i name="CSHIFT">      0.10000000</i>
   <i name="OMEGAMAX">     -1.00000000</i>
   <i name="DEG_THRESHOLD">      0.00200000</i>
   <i name="RTIME">     -0.10000000</i>
   <i name="WPLASMAI">      0.00000000</i>
   <v name="DFIELD">      0.00000000      0.00000000      0.00000000</v>
   <v name="WPLASMA">      0.00000000      0.00000000      0.00000000      0.00000000      0.00000000      0.00000000      0.00000000      0.00000000      0.00000000</v>
  </separator>
  <separator name="orbital magnetization" >
   <i type="logical" name="NUCIND"> F  </i>
   <v name="MAGPOS">      0.00000000      0.00000000      0.00000000</v>
   <i type="logical" name="LNICSALL"> T  </i>
   <i type="logical" name="ORBITALMAG"> F  </i>
   <i type="logical" name="LMAGBLOCH"> F  </i>
   <i type="logical" name="LCHIMAG"> F  </i>
   <i type="logical" name="LGAUGE"> T  </i>
   <i type="int" name="MAGATOM">     0</i>
   <v name="MAGDIPOL">      0.00000000      0.00000000      0.00000000</v>
   <v name="AVECCONST">      0.00000000      0.00000000      0.00000000</v>
  </separator>
  <separator name="response functions" >
   <i type="logical" name="LADDER"> F  </i>
   <i type="logical" name="LRPAFORCE"> F  </i>
   <i type="logical" name="LFXC"> F  </i>
   <i type="logical" name="LHARTREE"> T  </i>
   <i type="int" name="IBSE">     0</i>
   <v type="int" name="KPOINT">    -1     0     0     0</v>
   <i type="logical" name="LTCTE"> F  </i>
   <i type="logical" name="LTETE"> F  </i>
   <i type="logical" name="LTRIPLET"> F  </i>
   <i type="logical" name="LFXCEPS"> F  </i>
   <i type="logical" name="LFXHEG"> F  </i>
   <i type="int" name="NATURALO">     2</i>
   <i type="logical" name="L2ORDER"> F  </i>
   <i type="logical" name="LMP2LT"> F  </i>
   <i type="logical" name="LUSEW"> F  </i>
   <i name="ENCUTGW">     -2.00000000</i>
   <i name="ENCUTGWSOFT">     -2.00000000</i>
   <i name="ENCUTLF">     -1.00000000</i>
   <i type="int" name="LMAXMP2">    -1</i>
   <i name="SCISSOR">      0.00000000</i>
   <i type="int" name="NOMEGA">     0</i>
   <i type="int" name="NOMEGAR">     0</i>
   <i type="int" name="NBANDSGW">    -1</i>
   <i type="int" name="NBANDSO">    -1</i>
   <i type="int" name="NBANDSV">    -1</i>
   <i type="int" name="NELM">     1</i>
   <i type="int" name="NELMHF">     1</i>
   <i type="int" name="DIM">     3</i>
   <i type="int" name="ANTIRES">     0</i>
   <i name="OMEGAMAX">    -30.00000000</i>
   <i name="OMEGAMIN">    -30.00000000</i>
   <i name="OMEGATL">   -200.00000000</i>
   <i type="int" name="OMEGAGRID">   140</i>
   <i name="CSHIFT">     -0.10000000</i>
   <i type="logical" name="SELFENERGY"> F  </i>
   <i type="logical" name="LSPECTRAL"> F  </i>
   <i type="logical" name="LSPECTRALGW"> F  </i>
   <i type="logical" name="LSINGLES"> F  </i>
   <i type="logical" name="LFERMIGW"> F  </i>
   <i type="logical" name="ODDONLYGW"> F  </i>
   <i type="logical" name="EVENONLYGW"> F  </i>
   <i type="int" name="NKREDLFX">     1</i>
   <i type="int" name="NKREDLFY">     1</i>
   <i type="int" name="NKREDLFZ">     1</i>
   <i type="int" name="MAXMEM">  2800</i>
   <i type="int" name="TELESCOPE">     0</i>
   <i type="int" name="TAUPAR">     1</i>
   <i type="int" name="OMEGAPAR">    -1</i>
   <i name="LAMBDA">      1.00000000</i>
  </separator>
  <separator name="External order field" >
   <i name="OFIELD_KAPPA">      0.00000000</i>
   <v name="OFIELD_K">      0.00000000      0.00000000      0.00000000</v>
   <i name="OFIELD_Q6_NEAR">      0.00000000</i>
   <i name="OFIELD_Q6_FAR">      0.00000000</i>
   <i name="OFIELD_A">      0.00000000</i>
  </separator>
 </parameters>
 <atominfo>
  <atoms>       4 </atoms>
  <types>       3 </types>
  <array name="atoms" >
   <dimension dim="1">ion</dimension>
   <field type="string">element</field>
   <field type="int">atomtype</field>
   <set>
    <rc><c>Bi</c><c>   1</c></rc>
    <rc><c>K </c><c>   2</c></rc>
    <rc><c>Na</c><c>   3</c></rc>
    <rc><c>Na</c><c>   3</c></rc>
   </set>
  </array>
  <array name="atomtypes" >
   <dimension dim="1">type</dimension>
   <field type="int">atomspertype</field>
   <field type="string">element</field>
   <field>mass</field>
   <field>valence</field>
   <field type="string">pseudopotential</field>
   <set>
    <rc><c>   1</c><c>Bi</c><c>    208.98000000</c><c>     15.00000000</c><c>  PAW_PBE Bi_d 06Sep2000                </c></rc>
    <rc><c>   1</c><c>K </c><c>     39.09800000</c><c>      9.00000000</c><c>  PAW_PBE K_sv 06Sep2000                </c></rc>
    <rc><c>   2</c><c>Na</c><c>     22.99000000</c><c>      7.00000000</c><c>  PAW_PBE Na_pv 19Sep2006               </c></rc>
   </set>
  </array>
 </atominfo>
 <structure name="initialpos" >
  <crystal>
   <varray name="basis" >
    <v>       0.00000000       3.91764100       3.91764100 </v>
    <v>       3.91764100       0.00000000       3.91764100 </v>
    <v>       3.91764100       3.91764100       0.00000000 </v>
   </varray>
   <i name="volume">    120.25521083 </i>
   <varray name="rec_basis" >
    <v>      -0.12762783       0.12762783       0.12762783 </v>
    <v>       0.12762783      -0.12762783       0.12762783 </v>
    <v>       0.12762783       0.12762783      -0.12762783 </v>
   </varray>
  </crystal>
  <varray name="positions" >
   <v>       0.24999994       0.24999994       0.24999994 </v>
   <v>       0.74999981       0.74999981       0.74999981 </v>
   <v>       0.00000000       0.00000000       0.00000000 </v>
   <v>       0.49999987       0.49999987       0.49999987 </v>
  </varray>
 </structure>
 <calculation>
  <scstep>
   <time name="dav">    0.29    0.29</time>
   <time name="total">    0.35    0.35</time>
   <energy>
    <i name="alphaZ">    107.19987519 </i>
    <i name="ewald">  -2565.77789445 </i>
    <i name="hartreedc">  -1220.80790265 </i>
    <i name="XCdc">    133.74438727 </i>
    <i name="pawpsdc">   3274.07194199 </i>
    <i name="pawaedc">  -3416.58699786 </i>
    <i name="eentropy">     -0.00189141 </i>
    <i name="bandstr">   -192.56419386 </i>
    <i name="atom">   4266.28978799 </i>
    <i name="e_fr_energy">    385.56711220 </i>
    <i name="e_wo_entrp">    385.56900362 </i>
    <i name="e_0_energy">    385.56805791 </i>
   </energy>
  </scstep>
  <scstep>
   <time name="dav">    0.29    0.29</time>
   <time name="total">    0.29    0.29</time>
   <energy>
    <i name="e_fr_energy">     23.32266339 </i>
    <i name="e_wo_entrp">     23.32266339 </i>
    <i name="e_0_energy">     23.32266339 </i>
   </energy>
  </scstep>
  <scstep>
   <time name="dav">    0.39    0.39</time>
   <time name="total">    0.39    0.39</time>
   <energy>
    <i name="e_fr_energy">     -8.67715319 </i>
    <i name="e_wo_entrp">     -8.67715319 </i>
    <i name="e_0_energy">     -8.67715319 </i>
   </energy>
  </scstep>
  <scstep>
   <time name="dav">    0.36    0.36</time>
   <time name="total">    0.36    0.36</time>
   <energy>
    <i name="e_fr_energy">     -9.51768200 </i>
    <i name="e_wo_entrp">     -9.51768200 </i>
    <i name="e_0_energy">     -9.51768200 </i>
   </energy>
  </scstep>
  <scstep>
   <time name="dav">    0.40    0.40</time>
   <time name="total">    0.44    0.44</time>
   <energy>
    <i name="e_fr_energy">     -9.54993950 </i>
    <i name="e_wo_entrp">     -9.54993950 </i>
    <i name="e_0_energy">     -9.54993950 </i>
   </energy>
  </scstep>
  <scstep>
   <time name="dav">    0.38    0.38</time>
   <time name="total">    0.48    0.48</time>
   <energy>
    <i name="e_fr_energy">     -9.20504639 </i>
    <i name="e_wo_entrp">     -9.20504524 </i>
    <i name="e_0_energy">     -9.20504581 </i>
   </energy>
  </scstep>
  <scstep>
   <time name="dav">    0.34    0.34</time>
   <time name="total">    0.44    0.44</time>
   <energy>
    <i name="e_fr_energy">     -9.12624740 </i>
    <i name="e_wo_entrp">     -9.12607024 </i>
    <i name="e_0_energy">     -9.12615882 </i>
   </energy>
  </scstep>
  <scstep>
   <time name="dav">    0.33    0.33</time>
   <time name="total">    0.43    0.43</time>
   <energy>
    <i name="e_fr_energy">     -9.12901343 </i>
    <i name="e_wo_entrp">     -9.12883914 </i>
    <i name="e_0_energy">     -9.12892629 </i>
   </energy>
  </scstep>
  <scstep>
   <time name="dav">    0.33    0.33</time>
   <time name="total">    0.42    0.42</time>
   <energy>
    <i name="e_fr_energy">     -9.12874496 </i>
    <i name="e_wo_entrp">     -9.12856784 </i>
    <i name="e_0_energy">     -9.12865640 </i>
   </energy>
  </scstep>
  <scstep>
   <time name="dav">    0.34    0.34</time>
   <time name="total">    0.44    0.44</time>
   <energy>
    <i name="e_fr_energy">     -9.12880778 </i>
    <i name="e_wo_entrp">     -9.12863222 </i>
    <i name="e_0_energy">     -9.12872000 </i>
   </energy>
  </scstep>
  <scstep>
   <time name="dav">    0.31    0.31</time>
   <time name="total">    0.36    0.36</time>
   <energy>
    <i name="alphaZ">    107.19987519 </i>
    <i name="ewald">  -2565.77789445 </i>
    <i name="hartreedc">  -1214.83738456 </i>
    <i name="XCdc">    133.63779372 </i>
    <i name="pawpsdc">   3398.87738303 </i>
    <i name="pawaedc">  -3544.87004498 </i>
    <i name="eentropy">     -0.00017602 </i>
    <i name="bandstr">   -589.64814695 </i>
    <i name="atom">   4266.28978799 </i>
    <i name="e_fr_energy">     -9.12880704 </i>
    <i name="e_wo_entrp">     -9.12863101 </i>
    <i name="e_0_energy">     -9.12871902 </i>
   </energy>
  </scstep>
  <structure>
   <crystal>
    <varray name="basis" >
     <v>       0.00000000       3.91764100       3.91764100 </v>
     <v>       3.91764100       0.00000000       3.91764100 </v>
     <v>       3.91764100       3.91764100       0.00000000 </v>
    </varray>
    <i name="volume">    120.25521083 </i>
    <varray name="rec_basis" >
     <v>      -0.12762783       0.12762783       0.12762783 </v>
     <v>       0.12762783      -0.12762783       0.12762783 </v>
     <v>       0.12762783       0.12762783      -0.12762783 </v>
    </varray>
   </crystal>
   <varray name="positions" >
    <v>       0.24999994       0.24999994       0.24999994 </v>
    <v>       0.74999981       0.74999981       0.74999981 </v>
    <v>       0.00000000       0.00000000       0.00000000 </v>
    <v>       0.49999987       0.49999987       0.49999987 </v>
   </varray>
  </structure>
  <varray name="forces" >
   <v>      -0.00000000       0.00000000      -0.00000000 </v>
   <v>       0.00000000      -0.00000000       0.00000000 </v>
   <v>      -0.00000000      -0.00000000       0.00000000 </v>
   <v>      -0.00000000       0.00000000      -0.00000000 </v>
  </varray>
  <varray name="stress" >
   <v>       9.50448570      -0.00000000       0.00000000 </v>
   <v>       0.00000000       9.50448570      -0.00000000 </v>
   <v>      -0.00000000       0.00000000       9.50448570 </v>
  </varray>
  <energy>
   <i name="e_fr_energy">     -9.12880704 </i>
   <i name="e_wo_entrp">     -9.12871902 </i>
   <i name="e_0_energy">     -0.00017602 </i>
  </energy>
  <time name="totalsc">    4.82    4.83</time>
 </calculation>
 <calculation>
  <scstep>
   <time name="dav">    0.33    0.33</time>
   <time name="total">    0.43    0.43</time>
   <energy>
    <i name="alphaZ">    104.47981787 </i>
    <i name="ewald">  -2543.89062526 </i>
    <i name="hartreedc">  -1204.49994384 </i>
    <i name="XCdc">    132.29198827 </i>
    <i name="pawpsdc">   3399.00558617 </i>
    <i name="pawaedc">  -3544.99473415 </i>
    <i name="eentropy">     -0.00016404 </i>
    <i name="bandstr">   -618.04012681 </i>
    <i name="atom">   4266.28978799 </i>
    <i name="e_fr_energy">     -9.35841379 </i>
    <i name="e_wo_entrp">     -9.35824975 </i>
    <i name="e_0_energy">     -9.35833177 </i>
   </energy>
  </scstep>
  <scstep>
   <time name="dav">    0.33    0.33</time>
   <time name="total">    0.42    0.42</time>
   <energy>
    <i name="e_fr_energy">     -9.18318392 </i>
    <i name="e_wo_entrp">     -9.18302666 </i>
    <i name="e_0_energy">     -9.18310529 </i>
   </energy>
  </scstep>
  <scstep>
   <time name="dav">    0.35    0.35</time>
   <time name="total">    0.44    0.44</time>
   <energy>
    <i name="e_fr_energy">     -9.14216546 </i>
    <i name="e_wo_entrp">     -9.14200709 </i>
    <i name="e_0_energy">     -9.14208627 </i>
   </energy>
  </scstep>
  <scstep>
   <time name="dav">    0.40    0.40</time>
   <time name="total">    0.49    0.49</time>
   <energy>
    <i name="e_fr_energy">     -9.14176864 </i>
    <i name="e_wo_entrp">     -9.14160807 </i>
    <i name="e_0_energy">     -9.14168836 </i>
   </energy>
  </scstep>
  <scstep>
   <time name="dav">    0.41    0.41</time>
   <time name="total">    0.51    0.51</time>
   <energy>
    <i name="e_fr_energy">     -9.14165959 </i>
    <i name="e_wo_entrp">     -9.14150011 </i>
    <i name="e_0_energy">     -9.14157985 </i>
   </energy>
  </scstep>
  <scstep>
   <time name="dav">    0.32    0.32</time>
   <time name="total">    0.42    0.42</time>
   <energy>
    <i name="e_fr_energy">     -9.14162395 </i>
    <i name="e_wo_entrp">     -9.14146438 </i>
    <i name="e_0_energy">     -9.14154417 </i>
   </energy>
  </scstep>
  <scstep>
   <time name="dav">    0.33    0.33</time>
   <time name="total">    0.42    0.42</time>
   <energy>
    <i name="e_fr_energy">     -9.14160528 </i>
    <i name="e_wo_entrp">     -9.14144555 </i>
    <i name="e_0_energy">     -9.14152542 </i>
   </energy>
  </scstep>
  <scstep>
   <time name="dav">    0.22    0.22</time>
   <time name="total">    0.28    0.28</time>
   <energy>
    <i name="alphaZ">    104.47981787 </i>
    <i name="ewald">  -2543.89062526 </i>
    <i name="hartreedc">  -1228.63570264 </i>
    <i name="XCdc">    133.53127272 </i>
    <i name="pawpsdc">   3389.47327599 </i>
    <i name="pawaedc">  -3535.28725418 </i>
    <i name="eentropy">     -0.00015970 </i>
    <i name="bandstr">   -595.10201787 </i>
    <i name="atom">   4266.28978799 </i>
    <i name="e_fr_energy">     -9.14160509 </i>
    <i name="e_wo_entrp">     -9.14144539 </i>
    <i name="e_0_energy">     -9.14152524 </i>
   </energy>
  </scstep>
  <structure>
   <crystal>
    <varray name="basis" >
     <v>       0.00000000       3.95134782       3.95134782 </v>
     <v>       3.95134782       0.00000000       3.95134782 </v>
     <v>       3.95134782       3.95134782       0.00000000 </v>
    </varray>
    <i name="volume">    123.38596922 </i>
    <varray name="rec_basis" >
     <v>      -0.12653910       0.12653910       0.12653910 </v>
     <v>       0.12653910      -0.12653910       0.12653910 </v>
     <v>       0.12653910       0.12653910      -0.12653910 </v>
    </varray>
   </crystal>
   <varray name="positions" >
    <v>       0.24999994       0.24999994       0.24999994 </v>
    <v>       0.74999981       0.74999981       0.74999981 </v>
    <v>      -0.00000000       0.00000000      -0.00000000 </v>
    <v>       0.49999987       0.49999987       0.49999987 </v>
   </varray>
  </structure>
  <varray name="forces" >
   <v>      -0.00000000      -0.00000000       0.00000000 </v>
   <v>       0.00000000       0.00000000      -0.00000000 </v>
   <v>       0.00000000       0.00000000       0.00000000 </v>
   <v>      -0.00000000      -0.00000000      -0.00000000 </v>
  </varray>
  <varray name="stress" >
   <v>       4.14167751       0.00000000       0.00000000 </v>
   <v>       0.00000000       4.14167751       0.00000000 </v>
   <v>      -0.00000000      -0.00000000       4.14167751 </v>
  </varray>
  <energy>
   <i name="e_fr_energy">     -9.14160509 </i>
   <i name="e_wo_entrp">     -9.14152524 </i>
   <i name="e_0_energy">     -0.00015970 </i>
  </energy>
  <time name="totalsc">    3.83    3.84</time>
 </calculation>
 <calculation>
  <scstep>
   <time name="dav">    0.33    0.33</time>
   <time name="total">    0.42    0.43</time>
   <energy>
    <i name="alphaZ">    102.34712303 </i>
    <i name="ewald">  -2526.46243715 </i>
    <i name="hartreedc">  -1220.23244265 </i>
    <i name="XCdc">    132.45046533 </i>
    <i name="pawpsdc">   3389.33591844 </i>
    <i name="pawaedc">  -3535.14443444 </i>
    <i name="eentropy">     -0.00016019 </i>
    <i name="bandstr">   -617.86917082 </i>
    <i name="atom">   4266.28978799 </i>
    <i name="e_fr_energy">     -9.28535046 </i>
    <i name="e_wo_entrp">     -9.28519027 </i>
    <i name="e_0_energy">     -9.28527036 </i>
   </energy>
  </scstep>
  <scstep>
   <time name="dav">    0.33    0.33</time>
   <time name="total">    0.42    0.42</time>
   <energy>
    <i name="e_fr_energy">     -9.17201662 </i>
    <i name="e_wo_entrp">     -9.17185818 </i>
    <i name="e_0_energy">     -9.17193740 </i>
   </energy>
  </scstep>
  <scstep>
   <time name="dav">    0.34    0.34</time>
   <time name="total">    0.44    0.44</time>
   <energy>
    <i name="e_fr_energy">     -9.14560236 </i>
    <i name="e_wo_entrp">     -9.14544410 </i>
    <i name="e_0_energy">     -9.14552323 </i>
   </energy>
  </scstep>
  <scstep>
   <time name="dav">    0.38    0.38</time>
   <time name="total">    0.48    0.48</time>
   <energy>
    <i name="e_fr_energy">     -9.14533875 </i>
    <i name="e_wo_entrp">     -9.14518020 </i>
    <i name="e_0_energy">     -9.14525948 </i>
   </energy>
  </scstep>
  <scstep>
   <time name="dav">    0.41    0.41</time>
   <time name="total">    0.50    0.50</time>
   <energy>
    <i name="e_fr_energy">     -9.14526342 </i>
    <i name="e_wo_entrp">     -9.14510505 </i>
    <i name="e_0_energy">     -9.14518423 </i>
   </energy>
  </scstep>
  <scstep>
   <time name="dav">    0.30    0.30</time>
   <time name="total">    0.39    0.39</time>
   <energy>
    <i name="e_fr_energy">     -9.14524203 </i>
    <i name="e_wo_entrp">     -9.14508364 </i>
    <i name="e_0_energy">     -9.14516283 </i>
   </energy>
  </scstep>
  <scstep>
   <time name="dav">    0.32    0.32</time>
   <time name="total">    0.41    0.41</time>
   <energy>
    <i name="e_fr_energy">     -9.14522905 </i>
    <i name="e_wo_entrp">     -9.14507063 </i>
    <i name="e_0_energy">     -9.14514984 </i>
   </energy>
  </scstep>
  <scstep>
   <time name="dav">    0.21    0.21</time>
   <time name="total">    0.26    0.26</time>
   <energy>
    <i name="alphaZ">    102.34712303 </i>
    <i name="ewald">  -2526.46243715 </i>
    <i name="hartreedc">  -1239.69119718 </i>
    <i name="XCdc">    133.44795692 </i>
    <i name="pawpsdc">   3381.96540926 </i>
    <i name="pawaedc">  -3527.63667687 </i>
    <i name="eentropy">     -0.00015842 </i>
    <i name="bandstr">   -599.40503642 </i>
    <i name="atom">   4266.28978799 </i>
    <i name="e_fr_energy">     -9.14522884 </i>
    <i name="e_wo_entrp">     -9.14507042 </i>
    <i name="e_0_energy">     -9.14514963 </i>
   </energy>
  </scstep>
  <structure>
   <crystal>
    <varray name="basis" >
     <v>       0.00000000       3.97860523       3.97860523 </v>
     <v>       3.97860523       0.00000000       3.97860523 </v>
     <v>       3.97860523       3.97860523       0.00000000 </v>
    </varray>
    <i name="volume">    125.95706855 </i>
    <varray name="rec_basis" >
     <v>      -0.12567218       0.12567218       0.12567218 </v>
     <v>       0.12567218      -0.12567218       0.12567218 </v>
     <v>       0.12567218       0.12567218      -0.12567218 </v>
    </varray>
   </crystal>
   <varray name="positions" >
    <v>       0.24999994       0.24999994       0.24999994 </v>
    <v>       0.74999981       0.74999981       0.74999981 </v>
    <v>      -0.00000000       0.00000000      -0.00000000 </v>
    <v>       0.49999987       0.49999987       0.49999987 </v>
   </varray>
  </structure>
  <varray name="forces" >
   <v>      -0.00000000       0.00000000      -0.00000000 </v>
   <v>       0.00000000      -0.00000000      -0.00000000 </v>
   <v>      -0.00000000      -0.00000000      -0.00000000 </v>
   <v>       0.00000000       0.00000000       0.00000000 </v>
  </varray>
  <varray name="stress" >
   <v>       0.51034337       0.00000000      -0.00000000 </v>
   <v>       0.00000000       0.51034337       0.00000000 </v>
   <v>       0.00000000       0.00000000       0.51034337 </v>
  </varray>
  <energy>
   <i name="e_fr_energy">     -9.14522884 </i>
   <i name="e_wo_entrp">     -9.14514963 </i>
   <i name="e_0_energy">     -0.00015842 </i>
  </energy>
  <time name="totalsc">    3.76    3.77</time>
 </calculation>
 <calculation>
  <scstep>
   <time name="dav">    0.33    0.33</time>
   <time name="total">    0.43    0.43</time>
   <energy>
    <i name="alphaZ">    102.04504318 </i>
    <i name="ewald">  -2523.97435063 </i>
    <i name="hartreedc">  -1238.48113769 </i>
    <i name="XCdc">    133.29289623 </i>
    <i name="pawpsdc">   3381.84681852 </i>
    <i name="pawaedc">  -3527.51467654 </i>
    <i name="eentropy">     -0.00015894 </i>
    <i name="bandstr">   -602.65241470 </i>
    <i name="atom">   4266.28978799 </i>
    <i name="e_fr_energy">     -9.14819259 </i>
    <i name="e_wo_entrp">     -9.14803365 </i>
    <i name="e_0_energy">     -9.14811312 </i>
   </energy>
  </scstep>
  <scstep>
   <time name="dav">    0.32    0.32</time>
   <time name="total">    0.42    0.42</time>
   <energy>
    <i name="e_fr_energy">     -9.14584070 </i>
    <i name="e_wo_entrp">     -9.14568199 </i>
    <i name="e_0_energy">     -9.14576134 </i>
   </energy>
  </scstep>
  <scstep>
   <time name="dav">    0.34    0.34</time>
   <time name="total">    0.43    0.43</time>
   <energy>
    <i name="e_fr_energy">     -9.14529960 </i>
    <i name="e_wo_entrp">     -9.14514092 </i>
    <i name="e_0_energy">     -9.14522026 </i>
   </energy>
  </scstep>
  <scstep>
   <time name="dav">    0.38    0.38</time>
   <time name="total">    0.48    0.48</time>
   <energy>
    <i name="e_fr_energy">     -9.14528992 </i>
    <i name="e_wo_entrp">     -9.14513120 </i>
    <i name="e_0_energy">     -9.14521056 </i>
   </energy>
  </scstep>
  <scstep>
   <time name="dav">    0.28    0.28</time>
   <time name="total">    0.33    0.33</time>
   <energy>
    <i name="alphaZ">    102.04504318 </i>
    <i name="ewald">  -2523.97435063 </i>
    <i name="hartreedc">  -1241.29736512 </i>
    <i name="XCdc">    133.43696652 </i>
    <i name="pawpsdc">   3380.94602011 </i>
    <i name="pawaedc">  -3526.59552568 </i>
    <i name="eentropy">     -0.00015870 </i>
    <i name="bandstr">   -599.99570041 </i>
    <i name="atom">   4266.28978799 </i>
    <i name="e_fr_energy">     -9.14528273 </i>
    <i name="e_wo_entrp">     -9.14512404 </i>
    <i name="e_0_energy">     -9.14520339 </i>
   </energy>
  </scstep>
  <structure>
   <crystal>
    <varray name="basis" >
     <v>       0.00000000       3.98252727       3.98252727 </v>
     <v>       3.98252727       0.00000000       3.98252727 </v>
     <v>       3.98252727       3.98252727       0.00000000 </v>
    </varray>
    <i name="volume">    126.32993421 </i>
    <varray name="rec_basis" >
     <v>      -0.12554842       0.12554842       0.12554842 </v>
     <v>       0.12554842      -0.12554842       0.12554842 </v>
     <v>       0.12554842       0.12554842      -0.12554842 </v>
    </varray>
   </crystal>
   <varray name="positions" >
    <v>       0.24999994       0.24999994       0.24999994 </v>
    <v>       0.74999981       0.74999981       0.74999981 </v>
    <v>      -0.00000000       0.00000000      -0.00000000 </v>
    <v>       0.49999987       0.49999987       0.49999987 </v>
   </varray>
  </structure>
  <varray name="forces" >
   <v>       0.00000000       0.00000000       0.00000000 </v>
   <v>      -0.00000000      -0.00000000       0.00000000 </v>
   <v>       0.00000000       0.00000000      -0.00000000 </v>
   <v>      -0.00000000      -0.00000000       0.00000000 </v>
  </varray>
  <varray name="stress" >
   <v>      -0.41523538      -0.00000000      -0.00000000 </v>
   <v>       0.00000000      -0.41523538      -0.00000000 </v>
   <v>      -0.00000000      -0.00000000      -0.41523538 </v>
  </varray>
  <energy>
   <i name="e_fr_energy">     -9.14528273 </i>
   <i name="e_wo_entrp">     -9.14520339 </i>
   <i name="e_0_energy">     -0.00015870 </i>
  </energy>
  <time name="totalsc">    2.52    2.53</time>
 </calculation>
 <calculation>
  <scstep>
   <time name="dav">    0.33    0.33</time>
   <time name="total">    0.42    0.43</time>
   <energy>
    <i name="alphaZ">    102.18063660 </i>
    <i name="ewald">  -2525.09177497 </i>
    <i name="hartreedc">  -1241.82955476 </i>
    <i name="XCdc">    133.50615303 </i>
    <i name="pawpsdc">   3380.84455164 </i>
    <i name="pawaedc">  -3526.49068555 </i>
    <i name="eentropy">     -0.00015847 </i>
    <i name="bandstr">   -598.55480845 </i>
    <i name="atom">   4266.28978799 </i>
    <i name="e_fr_energy">     -9.14585294 </i>
    <i name="e_wo_entrp">     -9.14569448 </i>
    <i name="e_0_energy">     -9.14577371 </i>
   </energy>
  </scstep>
  <scstep>
   <time name="dav">    0.33    0.33</time>
   <time name="total">    0.43    0.43</time>
   <energy>
    <i name="e_fr_energy">     -9.14537262 </i>
    <i name="e_wo_entrp">     -9.14521405 </i>
    <i name="e_0_energy">     -9.14529334 </i>
   </energy>
  </scstep>
  <scstep>
   <time name="dav">    0.35    0.35</time>
   <time name="total">    0.44    0.44</time>
   <energy>
    <i name="e_fr_energy">     -9.14526574 </i>
    <i name="e_wo_entrp">     -9.14510716 </i>
    <i name="e_0_energy">     -9.14518645 </i>
   </energy>
  </scstep>
  <scstep>
   <time name="dav">    0.34    0.34</time>
   <time name="total">    0.43    0.44</time>
   <energy>
    <i name="e_fr_energy">     -9.14526793 </i>
    <i name="e_wo_entrp">     -9.14510937 </i>
    <i name="e_0_energy">     -9.14518865 </i>
   </energy>
  </scstep>
  <scstep>
   <time name="dav">    0.20    0.20</time>
   <time name="total">    0.25    0.25</time>
   <energy>
    <i name="alphaZ">    102.18063660 </i>
    <i name="ewald">  -2525.09177497 </i>
    <i name="hartreedc">  -1240.57466495 </i>
    <i name="XCdc">    133.44197111 </i>
    <i name="pawpsdc">   3381.15877176 </i>
    <i name="pawaedc">  -3526.81354114 </i>
    <i name="eentropy">     -0.00015857 </i>
    <i name="bandstr">   -599.73629831 </i>
    <i name="atom">   4266.28978799 </i>
    <i name="e_fr_energy">     -9.14527048 </i>
    <i name="e_wo_entrp">     -9.14511191 </i>
    <i name="e_0_energy">     -9.14519120 </i>
   </energy>
  </scstep>
  <structure>
   <crystal>
    <varray name="basis" >
     <v>       0.00000000       3.98076489       3.98076489 </v>
     <v>       3.98076489       0.00000000       3.98076489 </v>
     <v>       3.98076489       3.98076489       0.00000000 </v>
    </varray>
    <i name="volume">    126.16229474 </i>
    <varray name="rec_basis" >
     <v>      -0.12560400       0.12560400       0.12560400 </v>
     <v>       0.12560400      -0.12560400       0.12560400 </v>
     <v>       0.12560400       0.12560400      -0.12560400 </v>
    </varray>
   </crystal>
   <varray name="positions" >
    <v>       0.24999994       0.24999994       0.24999994 </v>
    <v>       0.74999981       0.74999981       0.74999981 </v>
    <v>      -0.00000000       0.00000000      -0.00000000 </v>
    <v>       0.49999987       0.49999987       0.49999987 </v>
   </varray>
  </structure>
  <varray name="forces" >
   <v>      -0.00000000      -0.00000000      -0.00000000 </v>
   <v>      -0.00000000      -0.00000000       0.00000000 </v>
   <v>       0.00000000       0.00000000      -0.00000000 </v>
   <v>       0.00000000       0.00000000       0.00000000 </v>
  </varray>
  <varray name="stress" >
   <v>       0.36507230       0.00000000       0.00000000 </v>
   <v>       0.00000000       0.36507230      -0.00000000 </v>
   <v>      -0.00000000      -0.00000000       0.36507230 </v>
  </varray>
  <energy>
   <i name="e_fr_energy">     -9.14527048 </i>
   <i name="e_wo_entrp">     -9.14519120 </i>
   <i name="e_0_energy">     -0.00015857 </i>
  </energy>
  <time name="totalsc">    2.41    2.42</time>
 </calculation>
 <calculation>
  <scstep>
   <time name="dav">    0.33    0.33</time>
   <time name="total">    0.42    0.43</time>
   <energy>
    <i name="alphaZ">    102.11721323 </i>
    <i name="ewald">  -2524.56922660 </i>
    <i name="hartreedc">  -1240.32299447 </i>
    <i name="XCdc">    133.40947387 </i>
    <i name="pawpsdc">   3381.19982139 </i>
    <i name="pawaedc">  -3526.85708337 </i>
    <i name="eentropy">     -0.00015868 </i>
    <i name="bandstr">   -600.41223955 </i>
    <i name="atom">   4266.28978799 </i>
    <i name="e_fr_energy">     -9.14540619 </i>
    <i name="e_wo_entrp">     -9.14524751 </i>
    <i name="e_0_energy">     -9.14532685 </i>
   </energy>
  </scstep>
  <scstep>
   <time name="dav">    0.33    0.33</time>
   <time name="total">    0.42    0.42</time>
   <energy>
    <i name="e_fr_energy">     -9.14530615 </i>
    <i name="e_wo_entrp">     -9.14514752 </i>
    <i name="e_0_energy">     -9.14522683 </i>
   </energy>
  </scstep>
  <scstep>
   <time name="dav">    0.32    0.32</time>
   <time name="total">    0.41    0.41</time>
   <energy>
    <i name="e_fr_energy">     -9.14528176 </i>
    <i name="e_wo_entrp">     -9.14512314 </i>
    <i name="e_0_energy">     -9.14520245 </i>
   </energy>
  </scstep>
  <scstep>
   <time name="dav">    0.21    0.21</time>
   <time name="total">    0.31    0.31</time>
   <energy>
    <i name="e_fr_energy">     -9.14528015 </i>
    <i name="e_wo_entrp">     -9.14512152 </i>
    <i name="e_0_energy">     -9.14520083 </i>
   </energy>
  </scstep>
  <scstep>
   <time name="dav">    0.20    0.20</time>
   <time name="total">    0.25    0.25</time>
   <energy>
    <i name="alphaZ">    102.11721323 </i>
    <i name="ewald">  -2524.56922660 </i>
    <i name="hartreedc">  -1240.91664183 </i>
    <i name="XCdc">    133.43987958 </i>
    <i name="pawpsdc">   3381.05264173 </i>
    <i name="pawaedc">  -3526.70195486 </i>
    <i name="eentropy">     -0.00015863 </i>
    <i name="bandstr">   -599.85681949 </i>
    <i name="atom">   4266.28978799 </i>
    <i name="e_fr_energy">     -9.14527889 </i>
    <i name="e_wo_entrp">     -9.14512026 </i>
    <i name="e_0_energy">     -9.14519957 </i>
   </energy>
  </scstep>
  <structure>
   <crystal>
    <varray name="basis" >
     <v>       0.00000000       3.98158885       3.98158885 </v>
     <v>       3.98158885       0.00000000       3.98158885 </v>
     <v>       3.98158885       3.98158885       0.00000000 </v>
    </varray>
    <i name="volume">    126.24065213 </i>
    <varray name="rec_basis" >
     <v>      -0.12557801       0.12557801       0.12557801 </v>
     <v>       0.12557801      -0.12557801       0.12557801 </v>
     <v>       0.12557801       0.12557801      -0.12557801 </v>
    </varray>
   </crystal>
   <varray name="positions" >
    <v>       0.24999994       0.24999994       0.24999994 </v>
    <v>       0.74999981       0.74999981       0.74999981 </v>
    <v>      -0.00000000       0.00000000      -0.00000000 </v>
    <v>       0.49999987       0.49999987       0.49999987 </v>
   </varray>
  </structure>
  <varray name="forces" >
   <v>      -0.00000000      -0.00000000       0.00000000 </v>
   <v>       0.00000000      -0.00000000      -0.00000000 </v>
   <v>      -0.00000000       0.00000000      -0.00000000 </v>
   <v>      -0.00000000       0.00000000       0.00000000 </v>
  </varray>
  <varray name="stress" >
   <v>       0.04231790       0.00000000       0.00000000 </v>
   <v>      -0.00000000       0.04231790      -0.00000000 </v>
   <v>       0.00000000      -0.00000000       0.04231790 </v>
  </varray>
  <energy>
   <i name="e_fr_energy">     -9.14527889 </i>
   <i name="e_wo_entrp">     -9.14519957 </i>
   <i name="e_0_energy">     -0.00015863 </i>
  </energy>
  <time name="totalsc">    2.20    2.21</time>
  <eigenvalues>
   <array>
    <dimension dim="1">band</dimension>
    <dimension dim="2">kpoint</dimension>
    <dimension dim="3">spin</dimension>
    <field>eigene</field>
    <field>occ</field>
    <set>
     <set comment="spin 1">
      <set comment="kpoint 1">
       <r>  -29.0243    1.0000 </r>
       <r>  -22.2492    1.0000 </r>
       <r>  -22.2492    1.0000 </r>
       <r>  -22.2492    1.0000 </r>
       <r>  -22.2407    1.0000 </r>
       <r>  -22.2407    1.0000 </r>
       <r>  -22.2407    1.0000 </r>
       <r>  -19.1370    1.0000 </r>
       <r>  -19.1370    1.0000 </r>
       <r>  -19.1370    1.0000 </r>
       <r>  -19.1339    1.0000 </r>
       <r>  -19.1339    1.0000 </r>
       <r>  -12.5390    1.0000 </r>
       <r>  -12.5390    1.0000 </r>
       <r>  -12.5390    1.0000 </r>
       <r>   -7.3611    1.0000 </r>
       <r>    2.0288    1.0000 </r>
       <r>    2.1544    0.6734 </r>
       <r>    2.1544    0.6734 </r>
       <r>    2.1544    0.6734 </r>
       <r>    4.8190    0.0000 </r>
       <r>    4.8190    0.0000 </r>
       <r>    4.8190    0.0000 </r>
      </set>
      <set comment="kpoint 2">
       <r>  -29.0243    1.0000 </r>
       <r>  -22.2489    1.0000 </r>
       <r>  -22.2489    1.0000 </r>
       <r>  -22.2488    1.0000 </r>
       <r>  -22.2410    1.0000 </r>
       <r>  -22.2410    1.0000 </r>
       <r>  -22.2410    1.0000 </r>
       <r>  -19.1371    1.0000 </r>
       <r>  -19.1369    1.0000 </r>
       <r>  -19.1369    1.0000 </r>
       <r>  -19.1339    1.0000 </r>
       <r>  -19.1339    1.0000 </r>
       <r>  -12.5418    1.0000 </r>
       <r>  -12.5390    1.0000 </r>
       <r>  -12.5390    1.0000 </r>
       <r>   -7.3345    1.0000 </r>
       <r>    1.2054    1.0000 </r>
       <r>    2.0634    0.9987 </r>
       <r>    2.0634    0.9987 </r>
       <r>    2.9315    0.0000 </r>
       <r>    4.9094    0.0000 </r>
       <r>    4.9751    0.0000 </r>
       <r>    4.9751    0.0000 </r>
      </set>
      <set comment="kpoint 3">
       <r>  -29.0242    1.0000 </r>
       <r>  -22.2479    1.0000 </r>
       <r>  -22.2479    1.0000 </r>
       <r>  -22.2479    1.0000 </r>
       <r>  -22.2419    1.0000 </r>
       <r>  -22.2419    1.0000 </r>
       <r>  -22.2419    1.0000 </r>
       <r>  -19.1373    1.0000 </r>
       <r>  -19.1369    1.0000 </r>
       <r>  -19.1369    1.0000 </r>
       <r>  -19.1339    1.0000 </r>
       <r>  -19.1339    1.0000 </r>
       <r>  -12.5483    1.0000 </r>
       <r>  -12.5391    1.0000 </r>
       <r>  -12.5391    1.0000 </r>
       <r>   -7.2689    1.0000 </r>
       <r>    0.4731    1.0000 </r>
       <r>    1.8744    1.0000 </r>
       <r>    1.8744    1.0000 </r>
       <r>    3.3650    0.0000 </r>
       <r>    5.3203    0.0000 </r>
       <r>    5.3203    0.0000 </r>
       <r>    5.5097    0.0000 </r>
      </set>
      <set comment="kpoint 4">
       <r>  -29.0241    1.0000 </r>
       <r>  -22.2466    1.0000 </r>
       <r>  -22.2466    1.0000 </r>
       <r>  -22.2465    1.0000 </r>
       <r>  -22.2433    1.0000 </r>
       <r>  -22.2433    1.0000 </r>
       <r>  -22.2433    1.0000 </r>
       <r>  -19.1376    1.0000 </r>
       <r>  -19.1368    1.0000 </r>
       <r>  -19.1368    1.0000 </r>
       <r>  -19.1339    1.0000 </r>
       <r>  -19.1339    1.0000 </r>
       <r>  -12.5547    1.0000 </r>
       <r>  -12.5392    1.0000 </r>
       <r>  -12.5392    1.0000 </r>
       <r>   -7.2014    1.0000 </r>
       <r>   -0.0107    1.0000 </r>
       <r>    1.7149    1.0000 </r>
       <r>    1.7149    1.0000 </r>
       <r>    3.4656    0.0000 </r>
       <r>    5.6360    0.0000 </r>
       <r>    5.6360    0.0000 </r>
       <r>    6.4157    0.0000 </r>
      </set>
      <set comment="kpoint 5">
       <r>  -29.0241    1.0000 </r>
       <r>  -22.2453    1.0000 </r>
       <r>  -22.2452    1.0000 </r>
       <r>  -22.2452    1.0000 </r>
       <r>  -22.2447    1.0000 </r>
       <r>  -22.2447    1.0000 </r>
       <r>  -22.2445    1.0000 </r>
       <r>  -19.1376    1.0000 </r>
       <r>  -19.1368    1.0000 </r>
       <r>  -19.1368    1.0000 </r>
       <r>  -19.1339    1.0000 </r>
       <r>  -19.1339    1.0000 </r>
       <r>  -12.5573    1.0000 </r>
       <r>  -12.5392    1.0000 </r>
       <r>  -12.5392    1.0000 </r>
       <r>   -7.1729    1.0000 </r>
       <r>   -0.1803    1.0000 </r>
       <r>    1.6550    1.0000 </r>
       <r>    1.6550    1.0000 </r>
       <r>    3.4874    0.0000 </r>
       <r>    5.7633    0.0000 </r>
       <r>    5.7633    0.0000 </r>
       <r>    6.3759    0.0000 </r>
      </set>
      <set comment="kpoint 6">
       <r>  -29.0243    1.0000 </r>
       <r>  -22.2493    1.0000 </r>
       <r>  -22.2493    1.0000 </r>
       <r>  -22.2476    1.0000 </r>
       <r>  -22.2422    1.0000 </r>
       <r>  -22.2405    1.0000 </r>
       <r>  -22.2405    1.0000 </r>
       <r>  -19.1371    1.0000 </r>
       <r>  -19.1369    1.0000 </r>
       <r>  -19.1369    1.0000 </r>
       <r>  -19.1339    1.0000 </r>
       <r>  -19.1338    1.0000 </r>
       <r>  -12.5415    1.0000 </r>
       <r>  -12.5396    1.0000 </r>
       <r>  -12.5396    1.0000 </r>
       <r>   -7.3266    1.0000 </r>
       <r>    1.1320    1.0000 </r>
       <r>    1.9858    1.0000 </r>
       <r>    1.9858    1.0000 </r>
       <r>    3.1398    0.0000 </r>
       <r>    4.5207    0.0000 </r>
       <r>    5.2213    0.0000 </r>
       <r>    5.2213    0.0000 </r>
      </set>
      <set comment="kpoint 7">
       <r>  -29.0242    1.0000 </r>
       <r>  -22.2491    1.0000 </r>
       <r>  -22.2491    1.0000 </r>
       <r>  -22.2460    1.0000 </r>
       <r>  -22.2438    1.0000 </r>
       <r>  -22.2408    1.0000 </r>
       <r>  -22.2408    1.0000 </r>
       <r>  -19.1373    1.0000 </r>
       <r>  -19.1369    1.0000 </r>
       <r>  -19.1368    1.0000 </r>
       <r>  -19.1340    1.0000 </r>
       <r>  -19.1338    1.0000 </r>
       <r>  -12.5462    1.0000 </r>
       <r>  -12.5401    1.0000 </r>
       <r>  -12.5397    1.0000 </r>
       <r>   -7.2764    1.0000 </r>
       <r>    0.6171    1.0000 </r>
       <r>    1.7880    1.0000 </r>
       <r>    1.8179    1.0000 </r>
       <r>    3.6084    0.0000 </r>
       <r>    4.5398    0.0000 </r>
       <r>    5.6217    0.0000 </r>
       <r>    5.6242    0.0000 </r>
      </set>
      <set comment="kpoint 8">
       <r>  -29.0241    1.0000 </r>
       <r>  -22.2483    1.0000 </r>
       <r>  -22.2482    1.0000 </r>
       <r>  -22.2455    1.0000 </r>
       <r>  -22.2442    1.0000 </r>
       <r>  -22.2416    1.0000 </r>
       <r>  -22.2416    1.0000 </r>
       <r>  -19.1375    1.0000 </r>
       <r>  -19.1369    1.0000 </r>
       <r>  -19.1368    1.0000 </r>
       <r>  -19.1339    1.0000 </r>
       <r>  -19.1338    1.0000 </r>
       <r>  -12.5522    1.0000 </r>
       <r>  -12.5402    1.0000 </r>
       <r>  -12.5401    1.0000 </r>
       <r>   -7.2119    1.0000 </r>
       <r>    0.1599    1.0000 </r>
       <r>    1.5398    1.0000 </r>
       <r>    1.6706    1.0000 </r>
       <r>    3.7850    0.0000 </r>
       <r>    5.0900    0.0000 </r>
       <r>    5.7604    0.0000 </r>
       <r>    5.8907    0.0000 </r>
      </set>
      <set comment="kpoint 9">
       <r>  -29.0241    1.0000 </r>
       <r>  -22.2473    1.0000 </r>
       <r>  -22.2469    1.0000 </r>
       <r>  -22.2468    1.0000 </r>
       <r>  -22.2430    1.0000 </r>
       <r>  -22.2429    1.0000 </r>
       <r>  -22.2426    1.0000 </r>
       <r>  -19.1376    1.0000 </r>
       <r>  -19.1369    1.0000 </r>
       <r>  -19.1368    1.0000 </r>
       <r>  -19.1339    1.0000 </r>
       <r>  -19.1338    1.0000 </r>
       <r>  -12.5558    1.0000 </r>
       <r>  -12.5407    1.0000 </r>
       <r>  -12.5398    1.0000 </r>
       <r>   -7.1712    1.0000 </r>
       <r>   -0.0719    1.0000 </r>
       <r>    1.3747    1.0000 </r>
       <r>    1.6108    1.0000 </r>
       <r>    3.8649    0.0000 </r>
       <r>    5.2667    0.0000 </r>
       <r>    5.9531    0.0000 </r>
       <r>    6.3124    0.0000 </r>
      </set>
      <set comment="kpoint 10">
       <r>  -29.0241    1.0000 </r>
       <r>  -22.2486    1.0000 </r>
       <r>  -22.2453    1.0000 </r>
       <r>  -22.2453    1.0000 </r>
       <r>  -22.2446    1.0000 </r>
       <r>  -22.2445    1.0000 </r>
       <r>  -22.2413    1.0000 </r>
       <r>  -19.1375    1.0000 </r>
       <r>  -19.1369    1.0000 </r>
       <r>  -19.1368    1.0000 </r>
       <r>  -19.1339    1.0000 </r>
       <r>  -19.1338    1.0000 </r>
       <r>  -12.5550    1.0000 </r>
       <r>  -12.5413    1.0000 </r>
       <r>  -12.5393    1.0000 </r>
       <r>   -7.1797    1.0000 </r>
       <r>   -0.0233    1.0000 </r>
       <r>    1.3526    1.0000 </r>
       <r>    1.6614    1.0000 </r>
       <r>    3.8981    0.0000 </r>
       <r>    5.3230    0.0000 </r>
       <r>    5.7679    0.0000 </r>
       <r>    6.4182    0.0000 </r>
      </set>
      <set comment="kpoint 11">
       <r>  -29.0241    1.0000 </r>
       <r>  -22.2493    1.0000 </r>
       <r>  -22.2463    1.0000 </r>
       <r>  -22.2462    1.0000 </r>
       <r>  -22.2435    1.0000 </r>
       <r>  -22.2435    1.0000 </r>
       <r>  -22.2405    1.0000 </r>
       <r>  -19.1374    1.0000 </r>
       <r>  -19.1369    1.0000 </r>
       <r>  -19.1368    1.0000 </r>
       <r>  -19.1339    1.0000 </r>
       <r>  -19.1338    1.0000 </r>
       <r>  -12.5504    1.0000 </r>
       <r>  -12.5413    1.0000 </r>
       <r>  -12.5388    1.0000 </r>
       <r>   -7.2319    1.0000 </r>
       <r>    0.2887    1.0000 </r>
       <r>    1.4931    1.0000 </r>
       <r>    1.8063    1.0000 </r>
       <r>    3.8231    0.0000 </r>
       <r>    5.2895    0.0000 </r>
       <r>    5.3965    0.0000 </r>
       <r>    5.6933    0.0000 </r>
      </set>
      <set comment="kpoint 12">
       <r>  -29.0242    1.0000 </r>
       <r>  -22.2494    1.0000 </r>
       <r>  -22.2478    1.0000 </r>
       <r>  -22.2478    1.0000 </r>
       <r>  -22.2421    1.0000 </r>
       <r>  -22.2420    1.0000 </r>
       <r>  -22.2404    1.0000 </r>
       <r>  -19.1372    1.0000 </r>
       <r>  -19.1369    1.0000 </r>
       <r>  -19.1369    1.0000 </r>
       <r>  -19.1339    1.0000 </r>
       <r>  -19.1338    1.0000 </r>
       <r>  -12.5449    1.0000 </r>
       <r>  -12.5404    1.0000 </r>
       <r>  -12.5387    1.0000 </r>
       <r>   -7.2958    1.0000 </r>
       <r>    0.7698    1.0000 </r>
       <r>    1.7833    1.0000 </r>
       <r>    1.9796    1.0000 </r>
       <r>    3.4427    0.0000 </r>
       <r>    4.8680    0.0000 </r>
       <r>    5.0605    0.0000 </r>
       <r>    5.5056    0.0000 </r>
      </set>
      <set comment="kpoint 13">
       <r>  -29.0242    1.0000 </r>
       <r>  -22.2496    1.0000 </r>
       <r>  -22.2496    1.0000 </r>
       <r>  -22.2458    1.0000 </r>
       <r>  -22.2439    1.0000 </r>
       <r>  -22.2403    1.0000 </r>
       <r>  -22.2403    1.0000 </r>
       <r>  -19.1376    1.0000 </r>
       <r>  -19.1368    1.0000 </r>
       <r>  -19.1368    1.0000 </r>
       <r>  -19.1340    1.0000 </r>
       <r>  -19.1336    1.0000 </r>
       <r>  -12.5468    1.0000 </r>
       <r>  -12.5411    1.0000 </r>
       <r>  -12.5411    1.0000 </r>
       <r>   -7.2500    1.0000 </r>
       <r>    0.4947    1.0000 </r>
       <r>    1.6859    1.0000 </r>
       <r>    1.6859    1.0000 </r>
       <r>    3.8536    0.0000 </r>
       <r>    4.0151    0.0000 </r>
       <r>    6.0054    0.0000 </r>
       <r>    6.1861    0.0000 </r>
      </set>
      <set comment="kpoint 14">
       <r>  -29.0241    1.0000 </r>
       <r>  -22.2494    1.0000 </r>
       <r>  -22.2494    1.0000 </r>
       <r>  -22.2476    1.0000 </r>
       <r>  -22.2420    1.0000 </r>
       <r>  -22.2405    1.0000 </r>
       <r>  -22.2405    1.0000 </r>
       <r>  -19.1377    1.0000 </r>
       <r>  -19.1368    1.0000 </r>
       <r>  -19.1367    1.0000 </r>
       <r>  -19.1339    1.0000 </r>
       <r>  -19.1336    1.0000 </r>
       <r>  -12.5503    1.0000 </r>
       <r>  -12.5420    1.0000 </r>
       <r>  -12.5416    1.0000 </r>
       <r>   -7.2047    1.0000 </r>
       <r>    0.2772    1.0000 </r>
       <r>    1.4094    1.0000 </r>
       <r>    1.5647    1.0000 </r>
       <r>    3.9022    0.0000 </r>
       <r>    4.2625    0.0000 </r>
       <r>    5.7952    0.0000 </r>
       <r>    6.4581    0.0000 </r>
      </set>
      <set comment="kpoint 15">
       <r>  -29.0241    1.0000 </r>
       <r>  -22.2493    1.0000 </r>
       <r>  -22.2486    1.0000 </r>
       <r>  -22.2484    1.0000 </r>
       <r>  -22.2414    1.0000 </r>
       <r>  -22.2413    1.0000 </r>
       <r>  -22.2406    1.0000 </r>
       <r>  -19.1377    1.0000 </r>
       <r>  -19.1369    1.0000 </r>
       <r>  -19.1367    1.0000 </r>
       <r>  -19.1339    1.0000 </r>
       <r>  -19.1337    1.0000 </r>
       <r>  -12.5526    1.0000 </r>
       <r>  -12.5438    1.0000 </r>
       <r>  -12.5413    1.0000 </r>
       <r>   -7.1670    1.0000 </r>
       <r>    0.1703    1.0000 </r>
       <r>    1.0242    1.0000 </r>
       <r>    1.5124    1.0000 </r>
       <r>    3.9949    0.0000 </r>
       <r>    5.1137    0.0000 </r>
       <r>    5.5089    0.0000 </r>
       <r>    6.4563    0.0000 </r>
      </set>
      <set comment="kpoint 16">
       <r>  -29.0241    1.0000 </r>
       <r>  -22.2500    1.0000 </r>
       <r>  -22.2471    1.0000 </r>
       <r>  -22.2471    1.0000 </r>
       <r>  -22.2428    1.0000 </r>
       <r>  -22.2427    1.0000 </r>
       <r>  -22.2398    1.0000 </r>
       <r>  -19.1374    1.0000 </r>
       <r>  -19.1371    1.0000 </r>
       <r>  -19.1367    1.0000 </r>
       <r>  -19.1338    1.0000 </r>
       <r>  -19.1338    1.0000 </r>
       <r>  -12.5524    1.0000 </r>
       <r>  -12.5455    1.0000 </r>
       <r>  -12.5403    1.0000 </r>
       <r>   -7.1594    1.0000 </r>
       <r>    0.1843    1.0000 </r>
       <r>    0.8228    1.0000 </r>
       <r>    1.5511    1.0000 </r>
       <r>    4.2587    0.0000 </r>
       <r>    5.2926    0.0000 </r>
       <r>    6.1542    0.0000 </r>
       <r>    6.2324    0.0000 </r>
      </set>
      <set comment="kpoint 17">
       <r>  -29.0241    1.0000 </r>
       <r>  -22.2500    1.0000 </r>
       <r>  -22.2454    1.0000 </r>
       <r>  -22.2454    1.0000 </r>
       <r>  -22.2445    1.0000 </r>
       <r>  -22.2444    1.0000 </r>
       <r>  -22.2398    1.0000 </r>
       <r>  -19.1374    1.0000 </r>
       <r>  -19.1371    1.0000 </r>
       <r>  -19.1368    1.0000 </r>
       <r>  -19.1339    1.0000 </r>
       <r>  -19.1338    1.0000 </r>
       <r>  -12.5514    1.0000 </r>
       <r>  -12.5445    1.0000 </r>
       <r>  -12.5393    1.0000 </r>
       <r>   -7.1865    1.0000 </r>
       <r>    0.2080    1.0000 </r>
       <r>    1.0127    1.0000 </r>
       <r>    1.6678    1.0000 </r>
       <r>    4.4155    0.0000 </r>
       <r>    5.2817    0.0000 </r>
       <r>    5.5182    0.0000 </r>
       <r>    5.7738    0.0000 </r>
      </set>
      <set comment="kpoint 18">
       <r>  -29.0241    1.0000 </r>
       <r>  -22.2499    1.0000 </r>
       <r>  -22.2499    1.0000 </r>
       <r>  -22.2494    1.0000 </r>
       <r>  -22.2403    1.0000 </r>
       <r>  -22.2400    1.0000 </r>
       <r>  -22.2400    1.0000 </r>
       <r>  -19.1380    1.0000 </r>
       <r>  -19.1366    1.0000 </r>
       <r>  -19.1366    1.0000 </r>
       <r>  -19.1339    1.0000 </r>
       <r>  -19.1335    1.0000 </r>
       <r>  -12.5513    1.0000 </r>
       <r>  -12.5427    1.0000 </r>
       <r>  -12.5427    1.0000 </r>
       <r>   -7.1841    1.0000 </r>
       <r>    0.2227    1.0000 </r>
       <r>    1.4659    1.0000 </r>
       <r>    1.4659    1.0000 </r>
       <r>    3.6467    0.0000 </r>
       <r>    3.7692    0.0000 </r>
       <r>    6.4085    0.0000 </r>
       <r>    6.9998    0.0000 </r>
      </set>
      <set comment="kpoint 19">
       <r>  -29.0241    1.0000 </r>
       <r>  -22.2505    1.0000 </r>
       <r>  -22.2497    1.0000 </r>
       <r>  -22.2496    1.0000 </r>
       <r>  -22.2403    1.0000 </r>
       <r>  -22.2403    1.0000 </r>
       <r>  -22.2392    1.0000 </r>
       <r>  -19.1380    1.0000 </r>
       <r>  -19.1367    1.0000 </r>
       <r>  -19.1366    1.0000 </r>
       <r>  -19.1339    1.0000 </r>
       <r>  -19.1335    1.0000 </r>
       <r>  -12.5520    1.0000 </r>
       <r>  -12.5443    1.0000 </r>
       <r>  -12.5427    1.0000 </r>
       <r>   -7.1624    1.0000 </r>
       <r>    0.2244    1.0000 </r>
       <r>    1.1451    1.0000 </r>
       <r>    1.4235    1.0000 </r>
       <r>    3.6719    0.0000 </r>
       <r>    4.0456    0.0000 </r>
       <r>    6.5023    0.0000 </r>
       <r>    7.0487    0.0000 </r>
      </set>
      <set comment="kpoint 20">
       <r>  -29.0240    1.0000 </r>
       <r>  -22.2507    1.0000 </r>
       <r>  -22.2487    1.0000 </r>
       <r>  -22.2486    1.0000 </r>
       <r>  -22.2413    1.0000 </r>
       <r>  -22.2412    1.0000 </r>
       <r>  -22.2391    1.0000 </r>
       <r>  -19.1377    1.0000 </r>
       <r>  -19.1369    1.0000 </r>
       <r>  -19.1366    1.0000 </r>
       <r>  -19.1338    1.0000 </r>
       <r>  -19.1336    1.0000 </r>
       <r>  -12.5501    1.0000 </r>
       <r>  -12.5477    1.0000 </r>
       <r>  -12.5417    1.0000 </r>
       <r>   -7.1523    1.0000 </r>
       <r>    0.3970    1.0000 </r>
       <r>    0.6351    1.0000 </r>
       <r>    1.4561    1.0000 </r>
       <r>    3.8925    0.0000 </r>
       <r>    4.9998    0.0000 </r>
       <r>    6.1827    0.0000 </r>
       <r>    6.7130    0.0000 </r>
      </set>
      <set comment="kpoint 21">
       <r>  -29.0240    1.0000 </r>
       <r>  -22.2509    1.0000 </r>
       <r>  -22.2501    1.0000 </r>
       <r>  -22.2500    1.0000 </r>
       <r>  -22.2399    1.0000 </r>
       <r>  -22.2399    1.0000 </r>
       <r>  -22.2387    1.0000 </r>
       <r>  -19.1382    1.0000 </r>
       <r>  -19.1366    1.0000 </r>
       <r>  -19.1366    1.0000 </r>
       <r>  -19.1339    1.0000 </r>
       <r>  -19.1335    1.0000 </r>
       <r>  -12.5529    1.0000 </r>
       <r>  -12.5433    1.0000 </r>
       <r>  -12.5433    1.0000 </r>
       <r>   -7.1603    1.0000 </r>
       <r>    0.1743    1.0000 </r>
       <r>    1.3891    1.0000 </r>
       <r>    1.3891    1.0000 </r>
       <r>    3.5166    0.0000 </r>
       <r>    3.5566    0.0000 </r>
       <r>    7.1117    0.0000 </r>
       <r>    7.3030    0.0000 </r>
      </set>
      <set comment="kpoint 22">
       <r>  -29.0241    1.0000 </r>
       <r>  -22.2497    1.0000 </r>
       <r>  -22.2481    1.0000 </r>
       <r>  -22.2456    1.0000 </r>
       <r>  -22.2441    1.0000 </r>
       <r>  -22.2418    1.0000 </r>
       <r>  -22.2401    1.0000 </r>
       <r>  -19.1375    1.0000 </r>
       <r>  -19.1369    1.0000 </r>
       <r>  -19.1368    1.0000 </r>
       <r>  -19.1340    1.0000 </r>
       <r>  -19.1337    1.0000 </r>
       <r>  -12.5492    1.0000 </r>
       <r>  -12.5421    1.0000 </r>
       <r>  -12.5397    1.0000 </r>
       <r>   -7.2289    1.0000 </r>
       <r>    0.3558    1.0000 </r>
       <r>    1.4315    1.0000 </r>
       <r>    1.7081    1.0000 </r>
       <r>    4.0893    0.0000 </r>
       <r>    4.5099    0.0000 </r>
       <r>    5.5707    0.0000 </r>
       <r>    6.0033    0.0000 </r>
      </set>
      <set comment="kpoint 23">
       <r>  -29.0241    1.0000 </r>
       <r>  -22.2497    1.0000 </r>
       <r>  -22.2474    1.0000 </r>
       <r>  -22.2467    1.0000 </r>
       <r>  -22.2432    1.0000 </r>
       <r>  -22.2423    1.0000 </r>
       <r>  -22.2402    1.0000 </r>
       <r>  -19.1375    1.0000 </r>
       <r>  -19.1370    1.0000 </r>
       <r>  -19.1367    1.0000 </r>
       <r>  -19.1339    1.0000 </r>
       <r>  -19.1337    1.0000 </r>
       <r>  -12.5523    1.0000 </r>
       <r>  -12.5434    1.0000 </r>
       <r>  -12.5402    1.0000 </r>
       <r>   -7.1807    1.0000 </r>
       <r>    0.1609    1.0000 </r>
       <r>    1.1261    1.0000 </r>
       <r>    1.5550    1.0000 </r>
       <r>    4.3206    0.0000 </r>
       <r>    5.0443    0.0000 </r>
       <r>    5.3325    0.0000 </r>
       <r>    6.3260    0.0000 </r>
      </set>
      <set comment="kpoint 24">
       <r>  -29.0241    1.0000 </r>
       <r>  -22.2492    1.0000 </r>
       <r>  -22.2486    1.0000 </r>
       <r>  -22.2451    1.0000 </r>
       <r>  -22.2448    1.0000 </r>
       <r>  -22.2410    1.0000 </r>
       <r>  -22.2409    1.0000 </r>
       <r>  -19.1375    1.0000 </r>
       <r>  -19.1371    1.0000 </r>
       <r>  -19.1367    1.0000 </r>
       <r>  -19.1338    1.0000 </r>
       <r>  -19.1338    1.0000 </r>
       <r>  -12.5537    1.0000 </r>
       <r>  -12.5436    1.0000 </r>
       <r>  -12.5406    1.0000 </r>
       <r>   -7.1605    1.0000 </r>
       <r>    0.0897    1.0000 </r>
       <r>    1.0147    1.0000 </r>
       <r>    1.4897    1.0000 </r>
       <r>    4.3999    0.0000 </r>
       <r>    4.9210    0.0000 </r>
       <r>    6.1280    0.0000 </r>
       <r>    6.2598    0.0000 </r>
      </set>
      <set comment="kpoint 25">
       <r>  -29.0241    1.0000 </r>
       <r>  -22.2501    1.0000 </r>
       <r>  -22.2492    1.0000 </r>
       <r>  -22.2484    1.0000 </r>
       <r>  -22.2415    1.0000 </r>
       <r>  -22.2404    1.0000 </r>
       <r>  -22.2399    1.0000 </r>
       <r>  -19.1378    1.0000 </r>
       <r>  -19.1368    1.0000 </r>
       <r>  -19.1366    1.0000 </r>
       <r>  -19.1339    1.0000 </r>
       <r>  -19.1336    1.0000 </r>
       <r>  -12.5513    1.0000 </r>
       <r>  -12.5439    1.0000 </r>
       <r>  -12.5421    1.0000 </r>
       <r>   -7.1735    1.0000 </r>
       <r>    0.2428    1.0000 </r>
       <r>    1.1752    1.0000 </r>
       <r>    1.3697    1.0000 </r>
       <r>    4.1883    0.0000 </r>
       <r>    4.2419    0.0000 </r>
       <r>    5.7299    0.0000 </r>
       <r>    6.9332    0.0000 </r>
      </set>
      <set comment="kpoint 26">
       <r>  -29.0240    1.0000 </r>
       <r>  -22.2505    1.0000 </r>
       <r>  -22.2496    1.0000 </r>
       <r>  -22.2469    1.0000 </r>
       <r>  -22.2430    1.0000 </r>
       <r>  -22.2400    1.0000 </r>
       <r>  -22.2395    1.0000 </r>
       <r>  -19.1376    1.0000 </r>
       <r>  -19.1371    1.0000 </r>
       <r>  -19.1366    1.0000 </r>
       <r>  -19.1338    1.0000 </r>
       <r>  -19.1337    1.0000 </r>
       <r>  -12.5506    1.0000 </r>
       <r>  -12.5463    1.0000 </r>
       <r>  -12.5424    1.0000 </r>
       <r>   -7.1536    1.0000 </r>
       <r>    0.3466    1.0000 </r>
       <r>    0.7827    1.0000 </r>
       <r>    1.2855    1.0000 </r>
       <r>    4.3300    0.0000 </r>
       <r>    5.0705    0.0000 </r>
       <r>    5.5141    0.0000 </r>
       <r>    6.3696    0.0000 </r>
      </set>
      <set comment="kpoint 27">
       <r>  -29.0241    1.0000 </r>
       <r>  -22.2504    1.0000 </r>
       <r>  -22.2489    1.0000 </r>
       <r>  -22.2451    1.0000 </r>
       <r>  -22.2448    1.0000 </r>
       <r>  -22.2408    1.0000 </r>
       <r>  -22.2395    1.0000 </r>
       <r>  -19.1373    1.0000 </r>
       <r>  -19.1373    1.0000 </r>
       <r>  -19.1366    1.0000 </r>
       <r>  -19.1338    1.0000 </r>
       <r>  -19.1337    1.0000 </r>
       <r>  -12.5504    1.0000 </r>
       <r>  -12.5470    1.0000 </r>
       <r>  -12.5414    1.0000 </r>
       <r>   -7.1566    1.0000 </r>
       <r>    0.3363    1.0000 </r>
       <r>    0.7160    1.0000 </r>
       <r>    1.3798    1.0000 </r>
       <r>    4.6326    0.0000 </r>
       <r>    5.2216    0.0000 </r>
       <r>    5.3762    0.0000 </r>
       <r>    6.1946    0.0000 </r>
      </set>
      <set comment="kpoint 28">
       <r>  -29.0240    1.0000 </r>
       <r>  -22.2509    1.0000 </r>
       <r>  -22.2500    1.0000 </r>
       <r>  -22.2486    1.0000 </r>
       <r>  -22.2414    1.0000 </r>
       <r>  -22.2398    1.0000 </r>
       <r>  -22.2389    1.0000 </r>
       <r>  -19.1379    1.0000 </r>
       <r>  -19.1368    1.0000 </r>
       <r>  -19.1366    1.0000 </r>
       <r>  -19.1338    1.0000 </r>
       <r>  -19.1336    1.0000 </r>
       <r>  -12.5515    1.0000 </r>
       <r>  -12.5447    1.0000 </r>
       <r>  -12.5436    1.0000 </r>
       <r>   -7.1542    1.0000 </r>
       <r>    0.2868    1.0000 </r>
       <r>    1.0854    1.0000 </r>
       <r>    1.1854    1.0000 </r>
       <r>    4.0742    0.0000 </r>
       <r>    4.0812    0.0000 </r>
       <r>    6.4228    0.0000 </r>
       <r>    6.7293    0.0000 </r>
      </set>
      <set comment="kpoint 29">
       <r>  -29.0240    1.0000 </r>
       <r>  -22.2510    1.0000 </r>
       <r>  -22.2500    1.0000 </r>
       <r>  -22.2450    1.0000 </r>
       <r>  -22.2450    1.0000 </r>
       <r>  -22.2395    1.0000 </r>
       <r>  -22.2392    1.0000 </r>
       <r>  -19.1374    1.0000 </r>
       <r>  -19.1374    1.0000 </r>
       <r>  -19.1366    1.0000 </r>
       <r>  -19.1338    1.0000 </r>
       <r>  -19.1337    1.0000 </r>
       <r>  -12.5481    1.0000 </r>
       <r>  -12.5481    1.0000 </r>
       <r>  -12.5440    1.0000 </r>
       <r>   -7.1480    1.0000 </r>
       <r>    0.6128    1.0000 </r>
       <r>    0.6128    1.0000 </r>
       <r>    1.0228    1.0000 </r>
       <r>    4.9341    0.0000 </r>
       <r>    5.2868    0.0000 </r>
       <r>    5.2868    0.0000 </r>
       <r>    5.5006    0.0000 </r>
      </set>
     </set>
    </set>
   </array>
  </eigenvalues>
  <separator name="orbital magnetization" >
   <v name="MAGDIPOLOUT">      0.00000000      0.00000000      0.00000000</v>
  </separator>
  <dos>
   <i name="efermi">      2.17025521 </i>
   <total>
    <array>
     <dimension dim="1">gridpoints</dimension>
     <dimension dim="2">spin</dimension>
     <field>energy</field>
     <field>total</field>
     <field>integrated</field>
     <set>
      <set comment="spin 1">
       <r>   -30.8407     0.0000     0.0000 </r>
       <r>   -30.7075     0.0000     0.0000 </r>
       <r>   -30.5743     0.0000     0.0000 </r>
       <r>   -30.4411     0.0000     0.0000 </r>
       <r>   -30.3079     0.0000     0.0000 </r>
       <r>   -30.1747     0.0000     0.0000 </r>
       <r>   -30.0415     0.0000     0.0000 </r>
       <r>   -29.9083     0.0000     0.0000 </r>
       <r>   -29.7751     0.0000     0.0000 </r>
       <r>   -29.6419     0.0000     0.0000 </r>
       <r>   -29.5087     0.0000     0.0000 </r>
       <r>   -29.3755     0.0000     0.0000 </r>
       <r>   -29.2423     0.0000     0.0000 </r>
       <r>   -29.1091     0.1221     0.0163 </r>
       <r>   -28.9759    13.5985     1.8276 </r>
       <r>   -28.8427     1.2944     2.0000 </r>
       <r>   -28.7095     0.0000     2.0000 </r>
       <r>   -28.5763     0.0000     2.0000 </r>
       <r>   -28.4431     0.0000     2.0000 </r>
       <r>   -28.3099     0.0000     2.0000 </r>
       <r>   -28.1767     0.0000     2.0000 </r>
       <r>   -28.0435     0.0000     2.0000 </r>
       <r>   -27.9103     0.0000     2.0000 </r>
       <r>   -27.7771     0.0000     2.0000 </r>
       <r>   -27.6439     0.0000     2.0000 </r>
       <r>   -27.5107     0.0000     2.0000 </r>
       <r>   -27.3775     0.0000     2.0000 </r>
       <r>   -27.2443     0.0000     2.0000 </r>
       <r>   -27.1111     0.0000     2.0000 </r>
       <r>   -26.9779     0.0000     2.0000 </r>
       <r>   -26.8447     0.0000     2.0000 </r>
       <r>   -26.7115     0.0000     2.0000 </r>
       <r>   -26.5783     0.0000     2.0000 </r>
       <r>   -26.4451     0.0000     2.0000 </r>
       <r>   -26.3119     0.0000     2.0000 </r>
       <r>   -26.1787     0.0000     2.0000 </r>
       <r>   -26.0455     0.0000     2.0000 </r>
       <r>   -25.9123     0.0000     2.0000 </r>
       <r>   -25.7791     0.0000     2.0000 </r>
       <r>   -25.6459     0.0000     2.0000 </r>
       <r>   -25.5127     0.0000     2.0000 </r>
       <r>   -25.3795     0.0000     2.0000 </r>
       <r>   -25.2463     0.0000     2.0000 </r>
       <r>   -25.1131     0.0000     2.0000 </r>
       <r>   -24.9799     0.0000     2.0000 </r>
       <r>   -24.8467     0.0000     2.0000 </r>
       <r>   -24.7135     0.0000     2.0000 </r>
       <r>   -24.5803     0.0000     2.0000 </r>
       <r>   -24.4471     0.0000     2.0000 </r>
       <r>   -24.3139     0.0000     2.0000 </r>
       <r>   -24.1807     0.0000     2.0000 </r>
       <r>   -24.0475     0.0000     2.0000 </r>
       <r>   -23.9143     0.0000     2.0000 </r>
       <r>   -23.7811     0.0000     2.0000 </r>
       <r>   -23.6479     0.0000     2.0000 </r>
       <r>   -23.5147     0.0000     2.0000 </r>
       <r>   -23.3815     0.0000     2.0000 </r>
       <r>   -23.2483     0.0000     2.0000 </r>
       <r>   -23.1151     0.0000     2.0000 </r>
       <r>   -22.9819     0.0000     2.0000 </r>
       <r>   -22.8487     0.0000     2.0000 </r>
       <r>   -22.7155     0.0000     2.0000 </r>
       <r>   -22.5823     0.0000     2.0000 </r>
       <r>   -22.4491     0.0000     2.0000 </r>
       <r>   -22.3159     2.0713     2.2759 </r>
       <r>   -22.1827    84.4252    13.5213 </r>
       <r>   -22.0495     3.5935    14.0000 </r>
       <r>   -21.9163     0.0000    14.0000 </r>
       <r>   -21.7831     0.0000    14.0000 </r>
       <r>   -21.6499     0.0000    14.0000 </r>
       <r>   -21.5167     0.0000    14.0000 </r>
       <r>   -21.3835     0.0000    14.0000 </r>
       <r>   -21.2503     0.0000    14.0000 </r>
       <r>   -21.1171     0.0000    14.0000 </r>
       <r>   -20.9839     0.0000    14.0000 </r>
       <r>   -20.8507     0.0000    14.0000 </r>
       <r>   -20.7175     0.0000    14.0000 </r>
       <r>   -20.5843     0.0000    14.0000 </r>
       <r>   -20.4511     0.0000    14.0000 </r>
       <r>   -20.3179     0.0000    14.0000 </r>
       <r>   -20.1847     0.0000    14.0000 </r>
       <r>   -20.0515     0.0000    14.0000 </r>
       <r>   -19.9183     0.0000    14.0000 </r>
       <r>   -19.7851     0.0000    14.0000 </r>
       <r>   -19.6519     0.0000    14.0000 </r>
       <r>   -19.5187     0.0000    14.0000 </r>
       <r>   -19.3855     0.0000    14.0000 </r>
       <r>   -19.2523     0.0374    14.0050 </r>
       <r>   -19.1191    51.1336    20.8160 </r>
       <r>   -18.9859    23.9031    23.9999 </r>
       <r>   -18.8527     0.0009    24.0000 </r>
       <r>   -18.7195     0.0000    24.0000 </r>
       <r>   -18.5863     0.0000    24.0000 </r>
       <r>   -18.4531     0.0000    24.0000 </r>
       <r>   -18.3199     0.0000    24.0000 </r>
       <r>   -18.1866     0.0000    24.0000 </r>
       <r>   -18.0534     0.0000    24.0000 </r>
       <r>   -17.9202     0.0000    24.0000 </r>
       <r>   -17.7870     0.0000    24.0000 </r>
       <r>   -17.6538     0.0000    24.0000 </r>
       <r>   -17.5206     0.0000    24.0000 </r>
       <r>   -17.3874     0.0000    24.0000 </r>
       <r>   -17.2542     0.0000    24.0000 </r>
       <r>   -17.1210     0.0000    24.0000 </r>
       <r>   -16.9878     0.0000    24.0000 </r>
       <r>   -16.8546     0.0000    24.0000 </r>
       <r>   -16.7214     0.0000    24.0000 </r>
       <r>   -16.5882     0.0000    24.0000 </r>
       <r>   -16.4550     0.0000    24.0000 </r>
       <r>   -16.3218     0.0000    24.0000 </r>
       <r>   -16.1886     0.0000    24.0000 </r>
       <r>   -16.0554     0.0000    24.0000 </r>
       <r>   -15.9222     0.0000    24.0000 </r>
       <r>   -15.7890     0.0000    24.0000 </r>
       <r>   -15.6558     0.0000    24.0000 </r>
       <r>   -15.5226     0.0000    24.0000 </r>
       <r>   -15.3894     0.0000    24.0000 </r>
       <r>   -15.2562     0.0000    24.0000 </r>
       <r>   -15.1230     0.0000    24.0000 </r>
       <r>   -14.9898     0.0000    24.0000 </r>
       <r>   -14.8566     0.0000    24.0000 </r>
       <r>   -14.7234     0.0000    24.0000 </r>
       <r>   -14.5902     0.0000    24.0000 </r>
       <r>   -14.4570     0.0000    24.0000 </r>
       <r>   -14.3238     0.0000    24.0000 </r>
       <r>   -14.1906     0.0000    24.0000 </r>
       <r>   -14.0574     0.0000    24.0000 </r>
       <r>   -13.9242     0.0000    24.0000 </r>
       <r>   -13.7910     0.0000    24.0000 </r>
       <r>   -13.6578     0.0000    24.0000 </r>
       <r>   -13.5246     0.0000    24.0000 </r>
       <r>   -13.3914     0.0000    24.0000 </r>
       <r>   -13.2582     0.0000    24.0000 </r>
       <r>   -13.1250     0.0000    24.0000 </r>
       <r>   -12.9918     0.0000    24.0000 </r>
       <r>   -12.8586     0.0000    24.0000 </r>
       <r>   -12.7254     0.0000    24.0000 </r>
       <r>   -12.5922     4.1767    24.5563 </r>
       <r>   -12.4590    40.5067    29.9518 </r>
       <r>   -12.3258     0.3616    30.0000 </r>
       <r>   -12.1926     0.0000    30.0000 </r>
       <r>   -12.0594     0.0000    30.0000 </r>
       <r>   -11.9262     0.0000    30.0000 </r>
       <r>   -11.7930     0.0000    30.0000 </r>
       <r>   -11.6598     0.0000    30.0000 </r>
       <r>   -11.5266     0.0000    30.0000 </r>
       <r>   -11.3934     0.0000    30.0000 </r>
       <r>   -11.2602     0.0000    30.0000 </r>
       <r>   -11.1270     0.0000    30.0000 </r>
       <r>   -10.9938     0.0000    30.0000 </r>
       <r>   -10.8606     0.0000    30.0000 </r>
       <r>   -10.7274     0.0000    30.0000 </r>
       <r>   -10.5942     0.0000    30.0000 </r>
       <r>   -10.4610     0.0000    30.0000 </r>
       <r>   -10.3278     0.0000    30.0000 </r>
       <r>   -10.1946     0.0000    30.0000 </r>
       <r>   -10.0614     0.0000    30.0000 </r>
       <r>    -9.9282     0.0000    30.0000 </r>
       <r>    -9.7950     0.0000    30.0000 </r>
       <r>    -9.6618     0.0000    30.0000 </r>
       <r>    -9.5286     0.0000    30.0000 </r>
       <r>    -9.3954     0.0000    30.0000 </r>
       <r>    -9.2622     0.0000    30.0000 </r>
       <r>    -9.1290     0.0000    30.0000 </r>
       <r>    -8.9958     0.0000    30.0000 </r>
       <r>    -8.8626     0.0000    30.0000 </r>
       <r>    -8.7294     0.0000    30.0000 </r>
       <r>    -8.5962     0.0000    30.0000 </r>
       <r>    -8.4630     0.0000    30.0000 </r>
       <r>    -8.3298     0.0000    30.0000 </r>
       <r>    -8.1966     0.0000    30.0000 </r>
       <r>    -8.0634     0.0000    30.0000 </r>
       <r>    -7.9302     0.0000    30.0000 </r>
       <r>    -7.7970     0.0000    30.0000 </r>
       <r>    -7.6638     0.0000    30.0000 </r>
       <r>    -7.5306     0.0000    30.0000 </r>
       <r>    -7.3974     0.0182    30.0024 </r>
       <r>    -7.2642     1.7026    30.2292 </r>
       <r>    -7.1310    11.5493    31.7676 </r>
       <r>    -6.9978     1.7449    32.0000 </r>
       <r>    -6.8646     0.0000    32.0000 </r>
       <r>    -6.7314     0.0000    32.0000 </r>
       <r>    -6.5982     0.0000    32.0000 </r>
       <r>    -6.4650     0.0000    32.0000 </r>
       <r>    -6.3318     0.0000    32.0000 </r>
       <r>    -6.1986     0.0000    32.0000 </r>
       <r>    -6.0654     0.0000    32.0000 </r>
       <r>    -5.9322     0.0000    32.0000 </r>
       <r>    -5.7990     0.0000    32.0000 </r>
       <r>    -5.6658     0.0000    32.0000 </r>
       <r>    -5.5326     0.0000    32.0000 </r>
       <r>    -5.3994     0.0000    32.0000 </r>
       <r>    -5.2662     0.0000    32.0000 </r>
       <r>    -5.1330     0.0000    32.0000 </r>
       <r>    -4.9998     0.0000    32.0000 </r>
       <r>    -4.8666     0.0000    32.0000 </r>
       <r>    -4.7334     0.0000    32.0000 </r>
       <r>    -4.6002     0.0000    32.0000 </r>
       <r>    -4.4670     0.0000    32.0000 </r>
       <r>    -4.3338     0.0000    32.0000 </r>
       <r>    -4.2006     0.0000    32.0000 </r>
       <r>    -4.0674     0.0000    32.0000 </r>
       <r>    -3.9342     0.0000    32.0000 </r>
       <r>    -3.8010     0.0000    32.0000 </r>
       <r>    -3.6678     0.0000    32.0000 </r>
       <r>    -3.5346     0.0000    32.0000 </r>
       <r>    -3.4014     0.0000    32.0000 </r>
       <r>    -3.2682     0.0000    32.0000 </r>
       <r>    -3.1350     0.0000    32.0000 </r>
       <r>    -3.0018     0.0000    32.0000 </r>
       <r>    -2.8686     0.0000    32.0000 </r>
       <r>    -2.7354     0.0000    32.0000 </r>
       <r>    -2.6022     0.0000    32.0000 </r>
       <r>    -2.4690     0.0000    32.0000 </r>
       <r>    -2.3358     0.0000    32.0000 </r>
       <r>    -2.2026     0.0000    32.0000 </r>
       <r>    -2.0694     0.0000    32.0000 </r>
       <r>    -1.9362     0.0000    32.0000 </r>
       <r>    -1.8030     0.0000    32.0000 </r>
       <r>    -1.6698     0.0000    32.0000 </r>
       <r>    -1.5366     0.0000    32.0000 </r>
       <r>    -1.4034     0.0000    32.0000 </r>
       <r>    -1.2702     0.0000    32.0000 </r>
       <r>    -1.1370     0.0000    32.0000 </r>
       <r>    -1.0038     0.0000    32.0000 </r>
       <r>    -0.8706     0.0000    32.0000 </r>
       <r>    -0.7374     0.0000    32.0000 </r>
       <r>    -0.6042     0.0000    32.0000 </r>
       <r>    -0.4710     0.0000    32.0000 </r>
       <r>    -0.3378     0.0000    32.0000 </r>
       <r>    -0.2046     0.0289    32.0039 </r>
       <r>    -0.0714     0.5152    32.0725 </r>
       <r>     0.0618     1.3628    32.2540 </r>
       <r>     0.1950     3.7297    32.7508 </r>
       <r>     0.3282     4.8078    33.3912 </r>
       <r>     0.4614     2.5918    33.7364 </r>
       <r>     0.5946     0.6424    33.8220 </r>
       <r>     0.7278     1.6428    34.0408 </r>
       <r>     0.8610     2.4774    34.3708 </r>
       <r>     0.9942     0.6003    34.4508 </r>
       <r>     1.1274     2.8647    34.8323 </r>
       <r>     1.2606     2.8373    35.2103 </r>
       <r>     1.3938     3.7874    35.7147 </r>
       <r>     1.5270     5.5675    36.4563 </r>
       <r>     1.6602     4.8753    37.1057 </r>
       <r>     1.7934     3.5452    37.5779 </r>
       <r>     1.9266     1.9137    37.8329 </r>
       <r>     2.0598     0.9263    37.9562 </r>
       <r>     2.1930     0.3457    38.0023 </r>
       <r>     2.3262     0.0122    38.0039 </r>
       <r>     2.4594     0.0000    38.0039 </r>
       <r>     2.5926     0.0000    38.0039 </r>
       <r>     2.7258     0.0000    38.0039 </r>
       <r>     2.8590     0.0047    38.0045 </r>
       <r>     2.9922     0.2198    38.0338 </r>
       <r>     3.1254     0.0702    38.0432 </r>
       <r>     3.2586     0.1161    38.0586 </r>
       <r>     3.3918     0.2127    38.0870 </r>
       <r>     3.5250     0.7691    38.1894 </r>
       <r>     3.6582     1.1358    38.3407 </r>
       <r>     3.7914     1.2633    38.5090 </r>
       <r>     3.9246     3.1106    38.9233 </r>
       <r>     4.0578     2.0429    39.1954 </r>
       <r>     4.1910     1.8363    39.4400 </r>
       <r>     4.3242     3.6838    39.9307 </r>
       <r>     4.4574     2.5271    40.2673 </r>
       <r>     4.5906     1.6177    40.4828 </r>
       <r>     4.7238     0.6834    40.5738 </r>
       <r>     4.8570     0.2552    40.6078 </r>
       <r>     4.9902     1.8366    40.8524 </r>
       <r>     5.1234     4.3406    41.4306 </r>
       <r>     5.2566     2.1254    41.7137 </r>
       <r>     5.3898     5.4932    42.4454 </r>
       <r>     5.5230     2.8498    42.8250 </r>
       <r>     5.6562     3.4532    43.2850 </r>
       <r>     5.7894     3.4326    43.7422 </r>
       <r>     5.9226     1.6591    43.9632 </r>
       <r>     6.0558     1.5201    44.1656 </r>
       <r>     6.1890     2.0057    44.4328 </r>
       <r>     6.3222     3.2681    44.8681 </r>
       <r>     6.4554     4.4370    45.4591 </r>
       <r>     6.5886     1.5921    45.6712 </r>
       <r>     6.7218     0.3621    45.7194 </r>
       <r>     6.8550     0.3564    45.7669 </r>
       <r>     6.9882     0.7480    45.8665 </r>
       <r>     7.1214     0.8656    45.9818 </r>
       <r>     7.2546     0.0561    45.9893 </r>
       <r>     7.3878     0.0797    45.9999 </r>
       <r>     7.5210     0.0007    46.0000 </r>
       <r>     7.6542     0.0000    46.0000 </r>
       <r>     7.7874     0.0000    46.0000 </r>
       <r>     7.9206     0.0000    46.0000 </r>
       <r>     8.0538     0.0000    46.0000 </r>
       <r>     8.1870     0.0000    46.0000 </r>
       <r>     8.3202     0.0000    46.0000 </r>
       <r>     8.4534     0.0000    46.0000 </r>
       <r>     8.5866     0.0000    46.0000 </r>
       <r>     8.7198     0.0000    46.0000 </r>
       <r>     8.8530     0.0000    46.0000 </r>
       <r>     8.9862     0.0000    46.0000 </r>
       <r>     9.1194     0.0000    46.0000 </r>
      </set>
     </set>
    </array>
   </total>
  </dos>
 </calculation>
 <structure name="finalpos" >
  <crystal>
   <varray name="basis" >
    <v>       0.00000000       3.98158885       3.98158885 </v>
    <v>       3.98158885       0.00000000       3.98158885 </v>
    <v>       3.98158885       3.98158885       0.00000000 </v>
   </varray>
   <i name="volume">    126.24065213 </i>
   <varray name="rec_basis" >
    <v>      -0.12557801       0.12557801       0.12557801 </v>
    <v>       0.12557801      -0.12557801       0.12557801 </v>
    <v>       0.12557801       0.12557801      -0.12557801 </v>
   </varray>
  </crystal>
  <varray name="positions" >
   <v>       0.24999994       0.24999994       0.24999994 </v>
   <v>       0.74999981       0.74999981       0.74999981 </v>
   <v>      -0.00000000       0.00000000      -0.00000000 </v>
   <v>       0.49999987       0.49999987       0.49999987 </v>
  </varray>
 </structure>
</modeling>
