unknown system                          
           1
     0.000000    3.917641    3.917641
     3.917641    0.000000    3.917641
     3.917641    3.917641    0.000000
   Bi   K    Na
   1   1   2
Direct configuration=     1
   0.24999994  0.24999994  0.24999994
   0.74999981  0.74999981  0.74999981
   0.00000000  0.00000000  0.00000000
   0.49999987  0.49999987  0.49999987
unknown system                          
           1
     0.000000    3.951348    3.951348
     3.951348    0.000000    3.951348
     3.951348    3.951348    0.000000
   Bi   K    Na
   1   1   2
Direct configuration=     2
   0.24999994  0.24999994  0.24999994
   0.74999981  0.74999981  0.74999981
  -0.00000000  0.00000000 -0.00000000
   0.49999987  0.49999987  0.49999987
unknown system                          
           1
     0.000000    3.978605    3.978605
     3.978605    0.000000    3.978605
     3.978605    3.978605    0.000000
   Bi   K    Na
   1   1   2
Direct configuration=     3
   0.24999994  0.24999994  0.24999994
   0.74999981  0.74999981  0.74999981
  -0.00000000  0.00000000 -0.00000000
   0.49999987  0.49999987  0.49999987
unknown system                          
           1
     0.000000    3.982527    3.982527
     3.982527    0.000000    3.982527
     3.982527    3.982527    0.000000
   Bi   K    Na
   1   1   2
Direct configuration=     4
   0.24999994  0.24999994  0.24999994
   0.74999981  0.74999981  0.74999981
  -0.00000000  0.00000000 -0.00000000
   0.49999987  0.49999987  0.49999987
unknown system                          
           1
     0.000000    3.980765    3.980765
     3.980765    0.000000    3.980765
     3.980765    3.980765    0.000000
   Bi   K    Na
   1   1   2
Direct configuration=     5
   0.24999994  0.24999994  0.24999994
   0.74999981  0.74999981  0.74999981
  -0.00000000  0.00000000 -0.00000000
   0.49999987  0.49999987  0.49999987
unknown system                          
           1
     0.000000    3.981589    3.981589
     3.981589    0.000000    3.981589
     3.981589    3.981589    0.000000
   Bi   K    Na
   1   1   2
Direct configuration=     6
   0.24999994  0.24999994  0.24999994
   0.74999981  0.74999981  0.74999981
  -0.00000000  0.00000000 -0.00000000
   0.49999987  0.49999987  0.49999987
