   4   4   0   0
  0.4283889E+02  0.6234540E-09  0.6234540E-09  0.6234540E-09  0.5000000E-15
  1.000000000000000E-004
  CAR 
 unknown system                          
      7.29625589    -31.24998844  301      1.45436693      1.00000000
    -31.250  0.0000E+00  0.0000E+00
    -31.122  0.0000E+00  0.0000E+00
    -30.993  0.0000E+00  0.0000E+00
    -30.865  0.0000E+00  0.0000E+00
    -30.736  0.0000E+00  0.0000E+00
    -30.608  0.0000E+00  0.0000E+00
    -30.479  0.0000E+00  0.0000E+00
    -30.351  0.0000E+00  0.0000E+00
    -30.222  0.0000E+00  0.0000E+00
    -30.094  0.0000E+00  0.0000E+00
    -29.965  0.0000E+00  0.0000E+00
    -29.837  0.0000E+00  0.0000E+00
    -29.708  0.1769E-07  0.2273E-08
    -29.580  0.2155E+00  0.2769E-01
    -29.451  0.2713E+02  0.3513E+01
    -29.323  0.3788E+01  0.4000E+01
    -29.194  0.2538E-04  0.4000E+01
    -29.066  0.0000E+00  0.4000E+01
    -28.937  0.0000E+00  0.4000E+01
    -28.809  0.0000E+00  0.4000E+01
    -28.680  0.0000E+00  0.4000E+01
    -28.552  0.0000E+00  0.4000E+01
    -28.423  0.0000E+00  0.4000E+01
    -28.295  0.0000E+00  0.4000E+01
    -28.166  0.0000E+00  0.4000E+01
    -28.038  0.0000E+00  0.4000E+01
    -27.909  0.0000E+00  0.4000E+01
    -27.781  0.0000E+00  0.4000E+01
    -27.652  0.0000E+00  0.4000E+01
    -27.524  0.0000E+00  0.4000E+01
    -27.395  0.0000E+00  0.4000E+01
    -27.267  0.0000E+00  0.4000E+01
    -27.138  0.2592E-14  0.4000E+01
    -27.010  0.4780E-04  0.4000E+01
    -26.881  0.2918E+01  0.4375E+01
    -26.753  0.1260E+02  0.5994E+01
    -26.624  0.4683E-01  0.6000E+01
    -26.496  0.1369E-08  0.6000E+01
    -26.367  0.0000E+00  0.6000E+01
    -26.239  0.0000E+00  0.6000E+01
    -26.110  0.0000E+00  0.6000E+01
    -25.982  0.0000E+00  0.6000E+01
    -25.854  0.0000E+00  0.6000E+01
    -25.725  0.0000E+00  0.6000E+01
    -25.597  0.0000E+00  0.6000E+01
    -25.468  0.0000E+00  0.6000E+01
    -25.340  0.0000E+00  0.6000E+01
    -25.211  0.0000E+00  0.6000E+01
    -25.083  0.0000E+00  0.6000E+01
    -24.954  0.0000E+00  0.6000E+01
    -24.826  0.0000E+00  0.6000E+01
    -24.697  0.0000E+00  0.6000E+01
    -24.569  0.0000E+00  0.6000E+01
    -24.440  0.0000E+00  0.6000E+01
    -24.312  0.0000E+00  0.6000E+01
    -24.183  0.0000E+00  0.6000E+01
    -24.055  0.0000E+00  0.6000E+01
    -23.926  0.0000E+00  0.6000E+01
    -23.798  0.0000E+00  0.6000E+01
    -23.669  0.0000E+00  0.6000E+01
    -23.541  0.0000E+00  0.6000E+01
    -23.412  0.0000E+00  0.6000E+01
    -23.284  0.0000E+00  0.6000E+01
    -23.155  0.0000E+00  0.6000E+01
    -23.027  0.0000E+00  0.6000E+01
    -22.898  0.0000E+00  0.6000E+01
    -22.770  0.0000E+00  0.6000E+01
    -22.641  0.0000E+00  0.6000E+01
    -22.513  0.0000E+00  0.6000E+01
    -22.384  0.0000E+00  0.6000E+01
    -22.256  0.0000E+00  0.6000E+01
    -22.127  0.0000E+00  0.6000E+01
    -21.999  0.0000E+00  0.6000E+01
    -21.870  0.0000E+00  0.6000E+01
    -21.742  0.0000E+00  0.6000E+01
    -21.613  0.0000E+00  0.6000E+01
    -21.485  0.0000E+00  0.6000E+01
    -21.356  0.0000E+00  0.6000E+01
    -21.228  0.0000E+00  0.6000E+01
    -21.099  0.0000E+00  0.6000E+01
    -20.971  0.0000E+00  0.6000E+01
    -20.843  0.0000E+00  0.6000E+01
    -20.714  0.0000E+00  0.6000E+01
    -20.586  0.0000E+00  0.6000E+01
    -20.457  0.0000E+00  0.6000E+01
    -20.329  0.0000E+00  0.6000E+01
    -20.200  0.0000E+00  0.6000E+01
    -20.072  0.0000E+00  0.6000E+01
    -19.943  0.0000E+00  0.6000E+01
    -19.815  0.0000E+00  0.6000E+01
    -19.686  0.8798E-06  0.6000E+01
    -19.558  0.1918E+01  0.6246E+01
    -19.429  0.7212E+02  0.1551E+02
    -19.301  0.3793E+01  0.1600E+02
    -19.172  0.5020E-05  0.1600E+02
    -19.044  0.0000E+00  0.1600E+02
    -18.915  0.0000E+00  0.1600E+02
    -18.787  0.0000E+00  0.1600E+02
    -18.658  0.0000E+00  0.1600E+02
    -18.530  0.0000E+00  0.1600E+02
    -18.401  0.0000E+00  0.1600E+02
    -18.273  0.0000E+00  0.1600E+02
    -18.144  0.0000E+00  0.1600E+02
    -18.016  0.0000E+00  0.1600E+02
    -17.887  0.0000E+00  0.1600E+02
    -17.759  0.0000E+00  0.1600E+02
    -17.630  0.0000E+00  0.1600E+02
    -17.502  0.0000E+00  0.1600E+02
    -17.373  0.0000E+00  0.1600E+02
    -17.245  0.0000E+00  0.1600E+02
    -17.116  0.0000E+00  0.1600E+02
    -16.988  0.0000E+00  0.1600E+02
    -16.859  0.0000E+00  0.1600E+02
    -16.731  0.0000E+00  0.1600E+02
    -16.602  0.0000E+00  0.1600E+02
    -16.474  0.0000E+00  0.1600E+02
    -16.345  0.0000E+00  0.1600E+02
    -16.217  0.0000E+00  0.1600E+02
    -16.088  0.0000E+00  0.1600E+02
    -15.960  0.0000E+00  0.1600E+02
    -15.831  0.0000E+00  0.1600E+02
    -15.703  0.0000E+00  0.1600E+02
    -15.575  0.0000E+00  0.1600E+02
    -15.446  0.0000E+00  0.1600E+02
    -15.318  0.0000E+00  0.1600E+02
    -15.189  0.0000E+00  0.1600E+02
    -15.061  0.0000E+00  0.1600E+02
    -14.932  0.0000E+00  0.1600E+02
    -14.804  0.0000E+00  0.1600E+02
    -14.675  0.0000E+00  0.1600E+02
    -14.547  0.0000E+00  0.1600E+02
    -14.418  0.0000E+00  0.1600E+02
    -14.290  0.0000E+00  0.1600E+02
    -14.161  0.0000E+00  0.1600E+02
    -14.033  0.0000E+00  0.1600E+02
    -13.904  0.0000E+00  0.1600E+02
    -13.776  0.0000E+00  0.1600E+02
    -13.647  0.0000E+00  0.1600E+02
    -13.519  0.0000E+00  0.1600E+02
    -13.390  0.0000E+00  0.1600E+02
    -13.262  0.8228E-07  0.1600E+02
    -13.133  0.3126E+00  0.1604E+02
    -13.005  0.5157E+02  0.2267E+02
    -12.876  0.4143E+02  0.2799E+02
    -12.748  0.8619E-01  0.2800E+02
    -12.619  0.3112E-08  0.2800E+02
    -12.491  0.0000E+00  0.2800E+02
    -12.362  0.0000E+00  0.2800E+02
    -12.234  0.0000E+00  0.2800E+02
    -12.105  0.0000E+00  0.2800E+02
    -11.977  0.0000E+00  0.2800E+02
    -11.848  0.0000E+00  0.2800E+02
    -11.720  0.0000E+00  0.2800E+02
    -11.591  0.0000E+00  0.2800E+02
    -11.463  0.0000E+00  0.2800E+02
    -11.334  0.0000E+00  0.2800E+02
    -11.206  0.5162E-10  0.2800E+02
    -11.077  0.1246E-01  0.2800E+02
    -10.949  0.2498E+02  0.3121E+02
    -10.820  0.2169E+02  0.3400E+02
    -10.692  0.5895E-02  0.3400E+02
    -10.564  0.9460E-11  0.3400E+02
    -10.435  0.0000E+00  0.3400E+02
    -10.307  0.0000E+00  0.3400E+02
    -10.178  0.0000E+00  0.3400E+02
    -10.050  0.0000E+00  0.3400E+02
     -9.921  0.0000E+00  0.3400E+02
     -9.793  0.0000E+00  0.3400E+02
     -9.664  0.0000E+00  0.3400E+02
     -9.536  0.0000E+00  0.3400E+02
     -9.407  0.0000E+00  0.3400E+02
     -9.279  0.0000E+00  0.3400E+02
     -9.150  0.0000E+00  0.3400E+02
     -9.022  0.0000E+00  0.3400E+02
     -8.893  0.0000E+00  0.3400E+02
     -8.765  0.0000E+00  0.3400E+02
     -8.636  0.0000E+00  0.3400E+02
     -8.508  0.0000E+00  0.3400E+02
     -8.379  0.0000E+00  0.3400E+02
     -8.251  0.0000E+00  0.3400E+02
     -8.122  0.0000E+00  0.3400E+02
     -7.994  0.0000E+00  0.3400E+02
     -7.865  0.0000E+00  0.3400E+02
     -7.737  0.2469E-11  0.3400E+02
     -7.608  0.3244E-03  0.3400E+02
     -7.480  0.1421E+01  0.3418E+02
     -7.351  0.1366E+02  0.3594E+02
     -7.223  0.4808E+00  0.3600E+02
     -7.094  0.5221E-06  0.3600E+02
     -6.966  0.0000E+00  0.3600E+02
     -6.837  0.0000E+00  0.3600E+02
     -6.709  0.0000E+00  0.3600E+02
     -6.580  0.0000E+00  0.3600E+02
     -6.452  0.0000E+00  0.3600E+02
     -6.323  0.0000E+00  0.3600E+02
     -6.195  0.0000E+00  0.3600E+02
     -6.066  0.0000E+00  0.3600E+02
     -5.938  0.0000E+00  0.3600E+02
     -5.809  0.0000E+00  0.3600E+02
     -5.681  0.0000E+00  0.3600E+02
     -5.552  0.0000E+00  0.3600E+02
     -5.424  0.0000E+00  0.3600E+02
     -5.296  0.0000E+00  0.3600E+02
     -5.167  0.0000E+00  0.3600E+02
     -5.039  0.0000E+00  0.3600E+02
     -4.910  0.0000E+00  0.3600E+02
     -4.782  0.0000E+00  0.3600E+02
     -4.653  0.0000E+00  0.3600E+02
     -4.525  0.0000E+00  0.3600E+02
     -4.396  0.0000E+00  0.3600E+02
     -4.268  0.0000E+00  0.3600E+02
     -4.139  0.0000E+00  0.3600E+02
     -4.011  0.0000E+00  0.3600E+02
     -3.882  0.0000E+00  0.3600E+02
     -3.754  0.0000E+00  0.3600E+02
     -3.625  0.0000E+00  0.3600E+02
     -3.497  0.0000E+00  0.3600E+02
     -3.368  0.0000E+00  0.3600E+02
     -3.240  0.0000E+00  0.3600E+02
     -3.111  0.0000E+00  0.3600E+02
     -2.983  0.0000E+00  0.3600E+02
     -2.854  0.0000E+00  0.3600E+02
     -2.726  0.0000E+00  0.3600E+02
     -2.597  0.0000E+00  0.3600E+02
     -2.469  0.0000E+00  0.3600E+02
     -2.340  0.0000E+00  0.3600E+02
     -2.212  0.0000E+00  0.3600E+02
     -2.083  0.0000E+00  0.3600E+02
     -1.955  0.0000E+00  0.3600E+02
     -1.826  0.0000E+00  0.3600E+02
     -1.698  0.0000E+00  0.3600E+02
     -1.569  0.0000E+00  0.3600E+02
     -1.441  0.0000E+00  0.3600E+02
     -1.312  0.0000E+00  0.3600E+02
     -1.184  0.0000E+00  0.3600E+02
     -1.055  0.0000E+00  0.3600E+02
     -0.927  0.0000E+00  0.3600E+02
     -0.798  0.0000E+00  0.3600E+02
     -0.670  0.0000E+00  0.3600E+02
     -0.541  0.0000E+00  0.3600E+02
     -0.413  0.0000E+00  0.3600E+02
     -0.285  0.0000E+00  0.3600E+02
     -0.156  0.3207E-12  0.3600E+02
     -0.028  0.6685E-04  0.3600E+02
      0.101  0.1082E+00  0.3601E+02
      0.229  0.1816E+01  0.3625E+02
      0.358  0.6701E+01  0.3711E+02
      0.486  0.4339E+01  0.3767E+02
      0.615  0.1949E+01  0.3792E+02
      0.743  0.9234E+00  0.3803E+02
      0.872  0.3224E+01  0.3845E+02
      1.000  0.2691E+01  0.3879E+02
      1.129  0.6550E+01  0.3964E+02
      1.257  0.1364E+02  0.4139E+02
      1.386  0.4604E+01  0.4198E+02
      1.514  0.1638E+00  0.4200E+02
      1.643  0.1374E-01  0.4200E+02
      1.771  0.2637E-05  0.4200E+02
      1.900  0.2275E-14  0.4200E+02
      2.028  0.6348E-06  0.4200E+02
      2.157  0.4348E-01  0.4201E+02
      2.285  0.3167E+00  0.4205E+02
      2.414  0.6547E-01  0.4206E+02
      2.542  0.9046E-04  0.4206E+02
      2.671  0.2018E+00  0.4208E+02
      2.799  0.3866E+00  0.4213E+02
      2.928  0.8581E+00  0.4224E+02
      3.056  0.1061E+01  0.4238E+02
      3.185  0.7663E+00  0.4248E+02
      3.313  0.4034E+01  0.4300E+02
      3.442  0.3251E+01  0.4342E+02
      3.570  0.2779E+01  0.4377E+02
      3.699  0.3787E+01  0.4426E+02
      3.827  0.1136E+01  0.4440E+02
      3.956  0.2224E+01  0.4469E+02
      4.084  0.3687E+01  0.4516E+02
      4.213  0.3630E+01  0.4563E+02
      4.341  0.5115E+01  0.4629E+02
      4.470  0.6598E+01  0.4714E+02
      4.598  0.3135E+01  0.4754E+02
      4.727  0.4007E+01  0.4805E+02
      4.855  0.5850E+01  0.4881E+02
      4.983  0.6919E+01  0.4969E+02
      5.112  0.1022E+01  0.4983E+02
      5.240  0.1205E+01  0.4998E+02
      5.369  0.6228E-01  0.4999E+02
      5.497  0.8497E-02  0.4999E+02
      5.626  0.8176E-01  0.5000E+02
      5.754  0.9459E-03  0.5000E+02
      5.883  0.1247E-09  0.5000E+02
      6.011  0.0000E+00  0.5000E+02
      6.140  0.0000E+00  0.5000E+02
      6.268  0.0000E+00  0.5000E+02
      6.397  0.0000E+00  0.5000E+02
      6.525  0.0000E+00  0.5000E+02
      6.654  0.0000E+00  0.5000E+02
      6.782  0.0000E+00  0.5000E+02
      6.911  0.0000E+00  0.5000E+02
      7.039  0.0000E+00  0.5000E+02
      7.168  0.0000E+00  0.5000E+02
      7.296  0.0000E+00  0.5000E+02
