    4    4    1    1
  0.4283889E+02  0.6234540E-09  0.6234540E-09  0.6234540E-09  0.5000000E-15
  1.000000000000000E-004
  CAR 
 unknown system                          
     42     29     25
 
  0.0000000E+00  0.0000000E+00  0.0000000E+00  0.1953125E-02
    1      -29.497886   1.000000
    2      -29.487507   1.000000
    3      -26.849495   1.000000
    4      -19.490444   1.000000
    5      -19.490442   1.000000
    6      -19.490442   1.000000
    7      -19.484576   1.000000
    8      -19.484576   1.000000
    9      -13.032269   1.000000
   10      -13.032269   1.000000
   11      -13.032269   1.000000
   12      -12.983343   1.000000
   13      -12.983343   1.000000
   14      -12.983342   1.000000
   15      -10.952712   1.000000
   16      -10.952712   1.000000
   17      -10.952709   1.000000
   18       -7.508075   1.000000
   19        1.371872   0.990184
   20        1.371879   0.990179
   21        1.371879   0.990179
   22        1.510056   0.057614
   23        3.988835   0.000000
   24        3.988835   0.000000
   25        4.541200   0.000000
 
  0.1250000E+00  0.0000000E+00  0.0000000E+00  0.1562500E-01
    1      -29.497448   1.000000
    2      -29.487882   1.000000
    3      -26.849575   1.000000
    4      -19.490407   1.000000
    5      -19.490406   1.000000
    6      -19.490356   1.000000
    7      -19.484575   1.000000
    8      -19.484575   1.000000
    9      -13.033142   1.000000
   10      -13.030911   1.000000
   11      -13.030911   1.000000
   12      -12.985544   1.000000
   13      -12.985544   1.000000
   14      -12.984307   1.000000
   15      -10.954798   1.000000
   16      -10.951856   1.000000
   17      -10.951853   1.000000
   18       -7.493466   1.000000
   19        0.829934   1.000000
   20        1.337106   0.999544
   21        1.337113   0.999544
   22        2.189339   0.000000
   23        4.107939   0.000000
   24        4.107939   0.000000
   25        4.451808   0.000000
 
  0.2500000E+00  0.0000000E+00  0.0000000E+00  0.1562500E-01
    1      -29.496238   1.000000
    2      -29.488944   1.000000
    3      -26.849768   1.000000
    4      -19.490352   1.000000
    5      -19.490351   1.000000
    6      -19.490172   1.000000
    7      -19.484583   1.000000
    8      -19.484583   1.000000
    9      -13.032874   1.000000
   10      -13.026836   1.000000
   11      -13.026836   1.000000
   12      -12.991641   1.000000
   13      -12.991641   1.000000
   14      -12.989280   1.000000
   15      -10.959073   1.000000
   16      -10.949783   1.000000
   17      -10.949780   1.000000
   18       -7.459312   1.000000
   19        0.409787   1.000000
   20        1.261640   1.000000
   21        1.261647   1.000000
   22        2.885471   0.000000
   23        4.396945   0.000000
   24        4.396948   0.000000
   25        4.490779   0.000000
 
  0.3750000E+00  0.0000000E+00  0.0000000E+00  0.1562500E-01
    1      -29.494477   1.000000
    2      -29.490549   1.000000
    3      -26.849961   1.000000
    4      -19.490288   1.000000
    5      -19.490287   1.000000
    6      -19.489974   1.000000
    7      -19.484581   1.000000
    8      -19.484581   1.000000
    9      -13.027933   1.000000
   10      -13.020353   1.000000
   11      -13.020353   1.000000
   12      -13.000142   1.000000
   13      -13.000142   1.000000
   14      -12.999207   1.000000
   15      -10.962351   1.000000
   16      -10.947715   1.000000
   17      -10.947712   1.000000
   18       -7.426625   1.000000
   19        0.167256   1.000000
   20        1.195607   1.000000
   21        1.195613   1.000000
   22        3.272724   0.000000
   23        4.685145   0.000000
   24        4.685150   0.000000
   25        4.963528   0.000000
 
  0.5000000E+00  0.0000000E+00  0.0000000E+00  0.7812500E-02
    1      -29.492514   1.000000
    2      -29.492446   1.000000
    3      -26.850042   1.000000
    4      -19.490271   1.000000
    5      -19.490269   1.000000
    6      -19.489892   1.000000
    7      -19.484581   1.000000
    8      -19.484581   1.000000
    9      -13.022129   1.000000
   10      -13.014572   1.000000
   11      -13.014571   1.000000
   12      -13.007159   1.000000
   13      -13.006784   1.000000
   14      -13.006784   1.000000
   15      -10.963439   1.000000
   16      -10.946864   1.000000
   17      -10.946862   1.000000
   18       -7.413490   1.000000
   19        0.087862   1.000000
   20        1.170475   1.000000
   21        1.170482   1.000000
   22        3.412276   0.000000
   23        4.679926   0.000000
   24        4.804304   0.000000
   25        4.804310   0.000000
 
  0.1250000E+00  0.1250000E+00  0.0000000E+00  0.1171875E-01
    1      -29.497323   1.000000
    2      -29.487989   1.000000
    3      -26.849600   1.000000
    4      -19.490389   1.000000
    5      -19.490388   1.000000
    6      -19.490358   1.000000
    7      -19.484606   1.000000
    8      -19.484557   1.000000
    9      -13.036354   1.000000
   10      -13.036354   1.000000
   11      -13.022094   1.000000
   12      -12.994610   1.000000
   13      -12.981029   1.000000
   14      -12.981028   1.000000
   15      -10.956386   1.000000
   16      -10.951104   1.000000
   17      -10.951102   1.000000
   18       -7.489188   1.000000
   19        0.743814   1.000000
   20        1.350782   0.998304
   21        1.350786   0.998304
   22        2.272048   0.000000
   23        4.094609   0.000000
   24        4.191175   0.000000
   25        4.252685   0.000000
 
  0.2500000E+00  0.1250000E+00  0.0000000E+00  0.4687500E-01
    1      -29.496424   1.000000
    2      -29.488764   1.000000
    3      -26.849757   1.000000
    4      -19.490344   1.000000
    5      -19.490324   1.000000
    6      -19.490221   1.000000
    7      -19.484606   1.000000
    8      -19.484553   1.000000
    9      -13.039201   1.000000
   10      -13.038227   1.000000
   11      -13.012209   1.000000
   12      -13.006274   1.000000
   13      -12.981229   1.000000
   14      -12.981159   1.000000
   15      -10.959800   1.000000
   16      -10.949740   1.000000
   17      -10.949115   1.000000
   18       -7.463082   1.000000
   19        0.455640   1.000000
   20        1.264934   1.000000
   21        1.304777   0.999988
   22        2.820761   0.000000
   23        4.089816   0.000000
   24        4.298538   0.000000
   25        4.391513   0.000000
 
  0.3750000E+00  0.1250000E+00  0.0000000E+00  0.4687500E-01
    1      -29.494936   1.000000
    2      -29.490102   1.000000
    3      -26.849950   1.000000
    4      -19.490271   1.000000
    5      -19.490263   1.000000
    6      -19.490031   1.000000
    7      -19.484597   1.000000
    8      -19.484557   1.000000
    9      -13.038092   1.000000
   10      -13.035725   1.000000
   11      -13.019007   1.000000
   12      -13.001458   1.000000
   13      -12.987117   1.000000
   14      -12.985745   1.000000
   15      -10.961837   1.000000
   16      -10.948870   1.000000
   17      -10.947061   1.000000
   18       -7.431872   1.000000
   19        0.255691   1.000000
   20        1.136103   1.000000
   21        1.235298   1.000000
   22        3.293407   0.000000
   23        4.320733   0.000000
   24        4.433998   0.000000
   25        4.600228   0.000000
 
  0.5000000E+00  0.1250000E+00  0.0000000E+00  0.4687500E-01
    1      -29.493122   1.000000
    2      -29.491821   1.000000
    3      -26.850068   1.000000
    4      -19.490241   1.000000
    5      -19.490222   1.000000
    6      -19.489915   1.000000
    7      -19.484585   1.000000
    8      -19.484567   1.000000
    9      -13.036910   1.000000
   10      -13.028772   1.000000
   11      -13.024464   1.000000
   12      -12.998299   1.000000
   13      -12.993472   1.000000
   14      -12.990825   1.000000
   15      -10.961995   1.000000
   16      -10.948602   1.000000
   17      -10.946139   1.000000
   18       -7.413395   1.000000
   19        0.170405   1.000000
   20        1.059914   1.000000
   21        1.183638   1.000000
   22        3.561469   0.000000
   23        4.181515   0.000000
   24        4.804144   0.000000
   25        4.828212   0.000000
 
 -0.3750000E+00  0.1250000E+00  0.0000000E+00  0.4687500E-01
    1      -29.493691   1.000000
    2      -29.491272   1.000000
    3      -26.850041   1.000000
    4      -19.490262   1.000000
    5      -19.490220   1.000000
    6      -19.489944   1.000000
    7      -19.484579   1.000000
    8      -19.484572   1.000000
    9      -13.042203   1.000000
   10      -13.018388   1.000000
   11      -13.017008   1.000000
   12      -13.008636   1.000000
   13      -13.002925   1.000000
   14      -12.982382   1.000000
   15      -10.961376   1.000000
   16      -10.948712   1.000000
   17      -10.946885   1.000000
   18       -7.417165   1.000000
   19        0.189653   1.000000
   20        1.076618   1.000000
   21        1.172680   1.000000
   22        3.544933   0.000000
   23        4.205439   0.000000
   24        4.784580   0.000000
   25        4.977155   0.000000
 
 -0.2500000E+00  0.1250000E+00  0.0000000E+00  0.4687500E-01
    1      -29.495437   1.000000
    2      -29.489648   1.000000
    3      -26.849886   1.000000
    4      -19.490318   1.000000
    5      -19.490265   1.000000
    6      -19.490097   1.000000
    7      -19.484596   1.000000
    8      -19.484567   1.000000
    9      -13.043709   1.000000
   10      -13.022403   1.000000
   11      -13.013777   1.000000
   12      -13.005455   1.000000
   13      -13.001135   1.000000
   14      -12.977845   1.000000
   15      -10.960081   1.000000
   16      -10.949186   1.000000
   17      -10.948867   1.000000
   18       -7.441310   1.000000
   19        0.314839   1.000000
   20        1.178911   1.000000
   21        1.207297   1.000000
   22        3.227960   0.000000
   23        4.337301   0.000000
   24        4.421030   0.000000
   25        4.643603   0.000000
 
 -0.1250000E+00  0.1250000E+00  0.0000000E+00  0.2343750E-01
    1      -29.496774   1.000000
    2      -29.488464   1.000000
    3      -26.849691   1.000000
    4      -19.490383   1.000000
    5      -19.490335   1.000000
    6      -19.490265   1.000000
    7      -19.484598   1.000000
    8      -19.484563   1.000000
    9      -13.039678   1.000000
   10      -13.028500   1.000000
   11      -13.022966   1.000000
   12      -12.994257   1.000000
   13      -12.991245   1.000000
   14      -12.978930   1.000000
   15      -10.957453   1.000000
   16      -10.950924   1.000000
   17      -10.950316   1.000000
   18       -7.473047   1.000000
   19        0.555390   1.000000
   20        1.274112   1.000000
   21        1.300265   0.999993
   22        2.665963   0.000000
   23        4.215934   0.000000
   24        4.304127   0.000000
   25        4.335053   0.000000
 
  0.2500000E+00  0.2500000E+00  0.0000000E+00  0.1171875E-01
    1      -29.495974   1.000000
    2      -29.489137   1.000000
    3      -26.849859   1.000000
    4      -19.490276   1.000000
    5      -19.490275   1.000000
    6      -19.490181   1.000000
    7      -19.484622   1.000000
    8      -19.484541   1.000000
    9      -13.045934   1.000000
   10      -13.045933   1.000000
   11      -13.021743   1.000000
   12      -12.997354   1.000000
   13      -12.975680   1.000000
   14      -12.975680   1.000000
   15      -10.963866   1.000000
   16      -10.947267   1.000000
   17      -10.947265   1.000000
   18       -7.450020   1.000000
   19        0.362068   1.000000
   20        1.305322   0.999988
   21        1.305326   0.999988
   22        2.954821   0.000000
   23        3.706498   0.000000
   24        4.410051   0.000000
   25        4.425389   0.000000
 
  0.3750000E+00  0.2500000E+00  0.0000000E+00  0.4687500E-01
    1      -29.494976   1.000000
    2      -29.490006   1.000000
    3      -26.850017   1.000000
    4      -19.490206   1.000000
    5      -19.490199   1.000000
    6      -19.490063   1.000000
    7      -19.484612   1.000000
    8      -19.484519   1.000000
    9      -13.049368   1.000000
   10      -13.048238   1.000000
   11      -13.034887   1.000000
   12      -12.984810   1.000000
   13      -12.976301   1.000000
   14      -12.975416   1.000000
   15      -10.965622   1.000000
   16      -10.946386   1.000000
   17      -10.945307   1.000000
   18       -7.429018   1.000000
   19        0.300488   1.000000
   20        1.175207   1.000000
   21        1.265327   1.000000
   22        3.223763   0.000000
   23        3.644637   0.000000
   24        4.417482   0.000000
   25        4.676287   0.000000
 
  0.5000000E+00  0.2500000E+00  0.0000000E+00  0.4687500E-01
    1      -29.493631   1.000000
    2      -29.491258   1.000000
    3      -26.850136   1.000000
    4      -19.490177   1.000000
    5      -19.490129   1.000000
    6      -19.489960   1.000000
    7      -19.484597   1.000000
    8      -19.484532   1.000000
    9      -13.053859   1.000000
   10      -13.044300   1.000000
   11      -13.036686   1.000000
   12      -12.984596   1.000000
   13      -12.980102   1.000000
   14      -12.974978   1.000000
   15      -10.963094   1.000000
   16      -10.948414   1.000000
   17      -10.944396   1.000000
   18       -7.412667   1.000000
   19        0.335303   1.000000
   20        0.933690   1.000000
   21        1.213707   1.000000
   22        3.394040   0.000000
   23        3.949358   0.000000
   24        4.465563   0.000000
   25        4.907356   0.000000
 
 -0.3750000E+00  0.2500000E+00  0.0000000E+00  0.4687500E-01
    1      -29.492720   1.000000
    2      -29.492161   1.000000
    3      -26.850145   1.000000
    4      -19.490194   1.000000
    5      -19.490089   1.000000
    6      -19.489948   1.000000
    7      -19.484570   1.000000
    8      -19.484548   1.000000
    9      -13.057326   1.000000
   10      -13.034588   1.000000
   11      -13.027307   1.000000
   12      -12.997690   1.000000
   13      -12.988833   1.000000
   14      -12.969654   1.000000
   15      -10.958202   1.000000
   16      -10.952347   1.000000
   17      -10.945058   1.000000
   18       -7.409411   1.000000
   19        0.379379   1.000000
   20        0.806205   1.000000
   21        1.178212   1.000000
   22        3.631321   0.000000
   23        4.021179   0.000000
   24        4.851822   0.000000
   25        4.901275   0.000000
 
 -0.2500000E+00  0.2500000E+00  0.0000000E+00  0.2343750E-01
    1      -29.494192   1.000000
    2      -29.490773   1.000000
    3      -26.850043   1.000000
    4      -19.490262   1.000000
    5      -19.490144   1.000000
    6      -19.490025   1.000000
    7      -19.484585   1.000000
    8      -19.484566   1.000000
    9      -13.053826   1.000000
   10      -13.020863   1.000000
   11      -13.014247   1.000000
   12      -13.011458   1.000000
   13      -13.000426   1.000000
   14      -12.970319   1.000000
   15      -10.958341   1.000000
   16      -10.951536   1.000000
   17      -10.946908   1.000000
   18       -7.420817   1.000000
   19        0.320741   1.000000
   20        0.955127   1.000000
   21        1.174896   1.000000
   22        3.693990   0.000000
   23        4.087616   0.000000
   24        4.513251   0.000000
   25        4.761214   0.000000
 
  0.3750000E+00  0.3750000E+00  0.0000000E+00  0.1171875E-01
    1      -29.494616   1.000000
    2      -29.490284   1.000000
    3      -26.850121   1.000000
    4      -19.490150   1.000000
    5      -19.490149   1.000000
    6      -19.490015   1.000000
    7      -19.484622   1.000000
    8      -19.484505   1.000000
    9      -13.055267   1.000000
   10      -13.055267   1.000000
   11      -13.048787   1.000000
   12      -12.972403   1.000000
   13      -12.970512   1.000000
   14      -12.970512   1.000000
   15      -10.969467   1.000000
   16      -10.943490   1.000000
   17      -10.943488   1.000000
   18       -7.420273   1.000000
   19        0.300040   1.000000
   20        1.266328   1.000000
   21        1.266333   1.000000
   22        3.025162   0.000000
   23        3.275921   0.000000
   24        4.610859   0.000000
   25        4.927806   0.000000
 
  0.5000000E+00  0.3750000E+00  0.0000000E+00  0.4687500E-01
    1      -29.493952   1.000000
    2      -29.490888   1.000000
    3      -26.850202   1.000000
    4      -19.490114   1.000000
    5      -19.490079   1.000000
    6      -19.489962   1.000000
    7      -19.484602   1.000000
    8      -19.484499   1.000000
    9      -13.061908   1.000000
   10      -13.055167   1.000000
   11      -13.049525   1.000000
   12      -12.972986   1.000000
   13      -12.971411   1.000000
   14      -12.965226   1.000000
   15      -10.968611   1.000000
   16      -10.944050   1.000000
   17      -10.942657   1.000000
   18       -7.411418   1.000000
   19        0.367920   1.000000
   20        1.087273   1.000000
   21        1.241191   1.000000
   22        3.012421   0.000000
   23        3.371054   0.000000
   24        4.800552   0.000000
   25        5.189501   0.000000
 
 -0.3750000E+00  0.3750000E+00  0.0000000E+00  0.2343750E-01
    1      -29.493093   1.000000
    2      -29.491736   1.000000
    3      -26.850213   1.000000
    4      -19.490131   1.000000
    5      -19.490007   1.000000
    6      -19.489988   1.000000
    7      -19.484594   1.000000
    8      -19.484513   1.000000
    9      -13.064488   1.000000
   10      -13.047802   1.000000
   11      -13.039907   1.000000
   12      -12.983374   1.000000
   13      -12.977805   1.000000
   14      -12.964009   1.000000
   15      -10.963159   1.000000
   16      -10.948380   1.000000
   17      -10.943305   1.000000
   18       -7.407172   1.000000
   19        0.523772   1.000000
   20        0.735978   1.000000
   21        1.206010   1.000000
   22        3.212796   0.000000
   23        3.837990   0.000000
   24        4.846864   0.000000
   25        5.116955   0.000000
 
  0.5000000E+00  0.5000000E+00  0.0000000E+00  0.5859375E-02
    1      -29.494053   1.000000
    2      -29.490760   1.000000
    3      -26.850228   1.000000
    4      -19.490070   1.000000
    5      -19.490069   1.000000
    6      -19.489924   1.000000
    7      -19.484612   1.000000
    8      -19.484463   1.000000
    9      -13.059951   1.000000
   10      -13.059058   1.000000
   11      -13.059058   1.000000
   12      -12.968393   1.000000
   13      -12.968392   1.000000
   14      -12.961990   1.000000
   15      -10.971256   1.000000
   16      -10.941936   1.000000
   17      -10.941934   1.000000
   18       -7.410781   1.000000
   19        0.347040   1.000000
   20        1.251787   1.000000
   21        1.251791   1.000000
   22        2.821356   0.000000
   23        3.118598   0.000000
   24        4.940460   0.000000
   25        5.544154   0.000000
 
  0.3750000E+00  0.2500000E+00  0.1250000E+00  0.4687500E-01
    1      -29.495451   1.000000
    2      -29.489615   1.000000
    3      -26.849913   1.000000
    4      -19.490287   1.000000
    5      -19.490233   1.000000
    6      -19.490115   1.000000
    7      -19.484605   1.000000
    8      -19.484547   1.000000
    9      -13.048226   1.000000
   10      -13.034723   1.000000
   11      -13.020427   1.000000
   12      -12.999477   1.000000
   13      -12.988166   1.000000
   14      -12.974067   1.000000
   15      -10.961921   1.000000
   16      -10.948478   1.000000
   17      -10.947594   1.000000
   18       -7.440040   1.000000
   19        0.332121   1.000000
   20        1.187897   1.000000
   21        1.223381   1.000000
   22        3.242631   0.000000
   23        3.961248   0.000000
   24        4.343156   0.000000
   25        4.596324   0.000000
 
  0.5000000E+00  0.2500000E+00  0.1250000E+00  0.9375000E-01
    1      -29.494041   1.000000
    2      -29.490902   1.000000
    3      -26.850069   1.000000
    4      -19.490223   1.000000
    5      -19.490158   1.000000
    6      -19.489987   1.000000
    7      -19.484589   1.000000
    8      -19.484543   1.000000
    9      -13.053031   1.000000
   10      -13.032822   1.000000
   11      -13.025821   1.000000
   12      -12.999361   1.000000
   13      -12.987852   1.000000
   14      -12.973194   1.000000
   15      -10.961009   1.000000
   16      -10.949895   1.000000
   17      -10.945685   1.000000
   18       -7.418296   1.000000
   19        0.300241   1.000000
   20        0.997890   1.000000
   21        1.174401   1.000000
   22        3.578711   0.000000
   23        4.092161   0.000000
   24        4.318742   0.000000
   25        4.860642   0.000000
 
 -0.3750000E+00  0.2500000E+00  0.1250000E+00  0.4687500E-01
    1      -29.492462   1.000000
    2      -29.492428   1.000000
    3      -26.850133   1.000000
    4      -19.490196   1.000000
    5      -19.490137   1.000000
    6      -19.489926   1.000000
    7      -19.484577   1.000000
    8      -19.484555   1.000000
    9      -13.053971   1.000000
   10      -13.037944   1.000000
   11      -13.015734   1.000000
   12      -13.010525   1.000000
   13      -12.979411   1.000000
   14      -12.977449   1.000000
   15      -10.959409   1.000000
   16      -10.951529   1.000000
   17      -10.944869   1.000000
   18       -7.409640   1.000000
   19        0.310102   1.000000
   20        0.901547   1.000000
   21        1.157020   1.000000
   22        3.740758   0.000000
   23        3.907642   0.000000
   24        4.760365   0.000000
   25        4.834418   0.000000
 
  0.5000000E+00  0.3750000E+00  0.1250000E+00  0.4687500E-01
    1      -29.494122   1.000000
    2      -29.490766   1.000000
    3      -26.850137   1.000000
    4      -19.490157   1.000000
    5      -19.490114   1.000000
    6      -19.489998   1.000000
    7      -19.484605   1.000000
    8      -19.484516   1.000000
    9      -13.060240   1.000000
   10      -13.044119   1.000000
   11      -13.042753   1.000000
   12      -12.983789   1.000000
   13      -12.973792   1.000000
   14      -12.969302   1.000000
   15      -10.965598   1.000000
   16      -10.946724   1.000000
   17      -10.943686   1.000000
   18       -7.415701   1.000000
   19        0.346970   1.000000
   20        1.084539   1.000000
   21        1.163297   1.000000
   22        3.288954   0.000000
   23        3.623214   0.000000
   24        4.503242   0.000000
   25        4.943016   0.000000
 
 -0.3750000E+00  0.3750000E+00  0.1250000E+00  0.9375000E-01
    1      -29.493053   1.000000
    2      -29.491785   1.000000
    3      -26.850201   1.000000
    4      -19.490125   1.000000
    5      -19.490049   1.000000
    6      -19.489973   1.000000
    7      -19.484590   1.000000
    8      -19.484525   1.000000
    9      -13.066349   1.000000
   10      -13.046002   1.000000
   11      -13.030590   1.000000
   12      -12.996863   1.000000
   13      -12.970180   1.000000
   14      -12.967076   1.000000
   15      -10.961191   1.000000
   16      -10.950772   1.000000
   17      -10.942988   1.000000
   18       -7.407630   1.000000
   19        0.491243   1.000000
   20        0.812412   1.000000
   21        1.115766   1.000000
   22        3.346064   0.000000
   23        3.965611   0.000000
   24        4.618905   0.000000
   25        4.952131   0.000000
 
 -0.2500000E+00  0.3750000E+00  0.1250000E+00  0.4687500E-01
    1      -29.492929   1.000000
    2      -29.491933   1.000000
    3      -26.850172   1.000000
    4      -19.490155   1.000000
    5      -19.490038   1.000000
    6      -19.489977   1.000000
    7      -19.484566   1.000000
    8      -19.484541   1.000000
    9      -13.063889   1.000000
   10      -13.041670   1.000000
   11      -13.014929   1.000000
   12      -13.012297   1.000000
   13      -12.976829   1.000000
   14      -12.966621   1.000000
   15      -10.956568   1.000000
   16      -10.954767   1.000000
   17      -10.943887   1.000000
   18       -7.408639   1.000000
   19        0.479930   1.000000
   20        0.764176   1.000000
   21        1.123973   1.000000
   22        3.521575   0.000000
   23        4.219402   0.000000
   24        4.413410   0.000000
   25        4.923418   0.000000
 
 -0.3750000E+00  0.5000000E+00  0.1250000E+00  0.2343750E-01
    1      -29.493573   1.000000
    2      -29.491242   1.000000
    3      -26.850229   1.000000
    4      -19.490088   1.000000
    5      -19.490064   1.000000
    6      -19.489957   1.000000
    7      -19.484607   1.000000
    8      -19.484498   1.000000
    9      -13.068278   1.000000
   10      -13.050809   1.000000
   11      -13.046055   1.000000
   12      -12.981970   1.000000
   13      -12.967512   1.000000
   14      -12.962907   1.000000
   15      -10.966746   1.000000
   16      -10.946021   1.000000
   17      -10.942045   1.000000
   18       -7.408223   1.000000
   19        0.437534   1.000000
   20        1.043391   1.000000
   21        1.106055   1.000000
   22        3.079103   0.000000
   23        3.498906   0.000000
   24        4.912602   0.000000
   25        5.168523   0.000000
 
 -0.2500000E+00  0.5000000E+00  0.2500000E+00  0.1171875E-01
    1      -29.492410   1.000000
    2      -29.492409   1.000000
    3      -26.850229   1.000000
    4      -19.490083   1.000000
    5      -19.490002   1.000000
    6      -19.490000   1.000000
    7      -19.484571   1.000000
    8      -19.484524   1.000000
    9      -13.071921   1.000000
   10      -13.047235   1.000000
   11      -13.014288   1.000000
   12      -13.014288   1.000000
   13      -12.965794   1.000000
   14      -12.964631   1.000000
   15      -10.956166   1.000000
   16      -10.956163   1.000000
   17      -10.942152   1.000000
   18       -7.405673   1.000000
   19        0.692874   1.000000
   20        0.692881   1.000000
   21        0.987315   1.000000
   22        3.327123   0.000000
   23        4.331108   0.000000
   24        4.331111   0.000000
   25        4.865704   0.000000
