 running on   28 total cores
 distrk:  each k-point on    7 cores,    4 groups
 distr:  one band on    7 cores,    1 groups
 using from now: INCAR     
 vasp.5.4.4.18Apr17-6-g9f103f2a35 (build Jun 23 2019 17:35:09) complex          
  
 POSCAR found type information on POSCAR  Bi K  Rb
 POSCAR found :  3 types and       4 ions
 scaLAPACK will be used

 ----------------------------------------------------------------------------- 
|                                                                             |
|           W    W    AA    RRRRR   N    N  II  N    N   GGGG   !!!           |
|           W    W   A  A   R    R  NN   N  II  NN   N  G    G  !!!           |
|           W    W  A    A  R    R  N N  N  II  N N  N  G       !!!           |
|           W WW W  AAAAAA  RRRRR   N  N N  II  N  N N  G  GGG   !            |
|           WW  WW  A    A  R   R   N   NN  II  N   NN  G    G                |
|           W    W  A    A  R    R  N    N  II  N    N   GGGG   !!!           |
|                                                                             |
|      You have enabled k-point parallelism (KPAR>1).                         |
|      This developmental code was originally  written by Paul Kent at ORNL,  |
|      and carefully double checked in Vienna.                                |
|      GW as well as linear response parallelism added by Martijn Marsman     |
|      and Georg Kresse.                                                      |
|      Carefully verify results versus KPAR=1.                                |
|      Report problems to Paul Kent and Vienna.                               |
|                                                                             |
 ----------------------------------------------------------------------------- 

 LDA part: xc-table for Pade appr. of Perdew
 POSCAR, INCAR and KPOINTS ok, starting setup
 FFT: planning ...
 WAVECAR not read
 entering main loop
       N       E                     dE             d eps       ncg     rms          rms(c)
DAV:   1     0.387306359634E+03    0.38731E+03   -0.20248E+04  1450   0.158E+03
DAV:   2     0.247385493361E+02   -0.36257E+03   -0.35850E+03  1600   0.421E+02
DAV:   3    -0.799642860449E+01   -0.32735E+02   -0.32420E+02  2233   0.132E+02
DAV:   4    -0.913714834349E+01   -0.11407E+01   -0.11394E+01  2219   0.222E+01
DAV:   5    -0.919435119293E+01   -0.57203E-01   -0.57199E-01  2283   0.350E+00    0.485E+00
DAV:   6    -0.848521468116E+01    0.70914E+00   -0.17430E+00  1599   0.356E+00    0.380E+00
DAV:   7    -0.835782409174E+01    0.12739E+00   -0.83852E-01  2168   0.290E+00    0.209E+00
DAV:   8    -0.836548638417E+01   -0.76623E-02   -0.12084E-01  1829   0.213E+00    0.252E-01
DAV:   9    -0.836411208007E+01    0.13743E-02   -0.35413E-02  1853   0.789E-01    0.196E-01
DAV:  10    -0.836402988972E+01    0.82190E-04   -0.50815E-03  2130   0.241E-01    0.518E-02
DAV:  11    -0.836408375991E+01   -0.53870E-04   -0.34050E-04  2069   0.126E-01    0.316E-02
DAV:  12    -0.836406155125E+01    0.22209E-04   -0.12221E-04  2074   0.491E-02    0.659E-03
DAV:  13    -0.836406156567E+01   -0.14420E-07   -0.41761E-06  1975   0.103E-02    0.130E-03
DAV:  14    -0.836406156232E+01    0.33551E-08   -0.34748E-07  1853   0.298E-03    0.461E-04
DAV:  15    -0.836406154771E+01    0.14604E-07   -0.32302E-08  1416   0.906E-04    0.135E-04
DAV:  16    -0.836406156046E+01   -0.12741E-07   -0.22258E-09  1415   0.358E-04    0.112E-04
DAV:  17    -0.836406157981E+01   -0.19351E-07   -0.71638E-10  1257   0.210E-04    0.477E-05
DAV:  18    -0.836406157843E+01    0.13779E-08   -0.60126E-10  1078   0.190E-04
   1 F= -.83640616E+01 E0= -.83640417E+01  d E =-.397691E-04
