<?xml version="1.0" encoding="ISO-8859-1"?>
<modeling>
 <generator>
  <i name="program" type="string">vasp </i>
  <i name="version" type="string">5.4.4.18Apr17-6-g9f103f2a35  </i>
  <i name="subversion" type="string">(build Jun 23 2019 17:35:09) complex            parallel </i>
  <i name="platform" type="string">LinuxIFC </i>
  <i name="date" type="string">2020 01 15 </i>
  <i name="time" type="string">15:38:50 </i>
 </generator>
 <incar>
  <i type="int" name="ISTART">     0</i>
  <i type="string" name="PREC">acc</i>
  <i type="string" name="ALGO"> Normal</i>
  <i type="int" name="ISPIN">     1</i>
  <i type="int" name="NELM">   150</i>
  <i type="int" name="NELMIN">     5</i>
  <i type="int" name="IBRION">    -1</i>
  <i name="EDIFF">      0.00000001</i>
  <i type="int" name="NSW">     0</i>
  <i type="int" name="ISIF">     3</i>
  <i name="ENCUT">    520.00000000</i>
  <i type="logical" name="LREAL"> F  </i>
  <i type="logical" name="LPLANE"> T  </i>
  <i type="int" name="ISMEAR">     0</i>
  <i name="SIGMA">      0.05000000</i>
  <i type="logical" name="LWAVE"> F  </i>
  <i type="logical" name="LCHARG"> F  </i>
  <v type="int" name="KPOINT_BSE">    -1     0     0     0</v>
  <i type="int" name="NELM">   150</i>
  <i type="string" name="GGA"> PE</i>
 </incar>
 <structure name="primitive_cell" >
  <crystal>
   <varray name="basis" >
    <v>       0.00000000       4.40848546       4.40848546 </v>
    <v>       4.40848546       0.00000000       4.40848546 </v>
    <v>       4.40848546       4.40848546       0.00000000 </v>
   </varray>
   <i name="volume">    171.35557349 </i>
   <varray name="rec_basis" >
    <v>      -0.11341764       0.11341764       0.11341764 </v>
    <v>       0.11341764      -0.11341764       0.11341764 </v>
    <v>       0.11341764       0.11341764      -0.11341764 </v>
   </varray>
  </crystal>
  <varray name="positions" >
   <v>       0.24999994       0.24999994       0.24999994 </v>
   <v>       0.00000000       0.00000000       0.00000000 </v>
   <v>       0.49999989       0.49999989       0.49999989 </v>
   <v>      -0.25000017      -0.25000017      -0.25000017 </v>
  </varray>
 </structure>
 <varray name="primitive_index" >
  <v type="int" >        1 </v>
  <v type="int" >        2 </v>
  <v type="int" >        3 </v>
  <v type="int" >        4 </v>
 </varray>
 <kpoints>
  <generation param="Gamma">
   <v type="int" name="divisions">       8        8        8 </v>
   <v name="usershift">      0.00000000       0.00000000       0.00000000 </v>
   <v name="genvec1">      0.12500000       0.00000000       0.00000000 </v>
   <v name="genvec2">      0.00000000       0.12500000       0.00000000 </v>
   <v name="genvec3">      0.00000000       0.00000000       0.12500000 </v>
   <v name="shift">      0.00000000       0.00000000       0.00000000 </v>
  </generation>
  <varray name="kpointlist" >
   <v>       0.00000000       0.00000000       0.00000000 </v>
   <v>       0.12500000       0.00000000       0.00000000 </v>
   <v>       0.25000000       0.00000000       0.00000000 </v>
   <v>       0.37500000       0.00000000       0.00000000 </v>
   <v>       0.50000000       0.00000000       0.00000000 </v>
   <v>       0.12500000       0.12500000       0.00000000 </v>
   <v>       0.25000000       0.12500000       0.00000000 </v>
   <v>       0.37500000       0.12500000       0.00000000 </v>
   <v>       0.50000000       0.12500000       0.00000000 </v>
   <v>      -0.37500000       0.12500000       0.00000000 </v>
   <v>      -0.25000000       0.12500000       0.00000000 </v>
   <v>      -0.12500000       0.12500000       0.00000000 </v>
   <v>       0.25000000       0.25000000       0.00000000 </v>
   <v>       0.37500000       0.25000000       0.00000000 </v>
   <v>       0.50000000       0.25000000       0.00000000 </v>
   <v>      -0.37500000       0.25000000       0.00000000 </v>
   <v>      -0.25000000       0.25000000       0.00000000 </v>
   <v>       0.37500000       0.37500000       0.00000000 </v>
   <v>       0.50000000       0.37500000       0.00000000 </v>
   <v>      -0.37500000       0.37500000       0.00000000 </v>
   <v>       0.50000000       0.50000000       0.00000000 </v>
   <v>       0.37500000       0.25000000       0.12500000 </v>
   <v>       0.50000000       0.25000000       0.12500000 </v>
   <v>      -0.37500000       0.25000000       0.12500000 </v>
   <v>       0.50000000       0.37500000       0.12500000 </v>
   <v>      -0.37500000       0.37500000       0.12500000 </v>
   <v>      -0.25000000       0.37500000       0.12500000 </v>
   <v>      -0.37500000       0.50000000       0.12500000 </v>
   <v>      -0.25000000       0.50000000       0.25000000 </v>
  </varray>
  <varray name="weights" >
   <v>       0.00195312 </v>
   <v>       0.01562500 </v>
   <v>       0.01562500 </v>
   <v>       0.01562500 </v>
   <v>       0.00781250 </v>
   <v>       0.01171875 </v>
   <v>       0.04687500 </v>
   <v>       0.04687500 </v>
   <v>       0.04687500 </v>
   <v>       0.04687500 </v>
   <v>       0.04687500 </v>
   <v>       0.02343750 </v>
   <v>       0.01171875 </v>
   <v>       0.04687500 </v>
   <v>       0.04687500 </v>
   <v>       0.04687500 </v>
   <v>       0.02343750 </v>
   <v>       0.01171875 </v>
   <v>       0.04687500 </v>
   <v>       0.02343750 </v>
   <v>       0.00585938 </v>
   <v>       0.04687500 </v>
   <v>       0.09375000 </v>
   <v>       0.04687500 </v>
   <v>       0.04687500 </v>
   <v>       0.09375000 </v>
   <v>       0.04687500 </v>
   <v>       0.02343750 </v>
   <v>       0.01171875 </v>
  </varray>
 </kpoints>
 <parameters>
  <separator name="general" >
   <i type="string" name="SYSTEM">unknown system</i>
   <i type="logical" name="LCOMPAT"> F  </i>
  </separator>
  <separator name="electronic" >
   <i type="string" name="PREC">acc</i>
   <i name="ENMAX">    520.00000000</i>
   <i name="ENAUG">    442.89900000</i>
   <i name="EDIFF">      0.00000001</i>
   <i type="int" name="IALGO">    38</i>
   <i type="int" name="IWAVPR">    10</i>
   <i type="int" name="NBANDS">    25</i>
   <i name="NELECT">     42.00000000</i>
   <i type="int" name="TURBO">     0</i>
   <i type="int" name="IRESTART">     0</i>
   <i type="int" name="NREBOOT">     0</i>
   <i type="int" name="NMIN">     0</i>
   <i name="EREF">      0.00000000</i>
   <separator name="electronic smearing" >
    <i type="int" name="ISMEAR">     0</i>
    <i name="SIGMA">      0.05000000</i>
    <i name="KSPACING">      0.50000000</i>
    <i type="logical" name="KGAMMA"> T  </i>
   </separator>
   <separator name="electronic projectors" >
    <i type="logical" name="LREAL"> F  </i>
    <v name="ROPT">      0.00000000      0.00000000      0.00000000</v>
    <i type="int" name="LMAXPAW">  -100</i>
    <i type="int" name="LMAXMIX">     2</i>
    <i type="logical" name="NLSPLINE"> F  </i>
   </separator>
   <separator name="electronic startup" >
    <i type="int" name="ISTART">     0</i>
    <i type="int" name="ICHARG">     2</i>
    <i type="int" name="INIWAV">     1</i>
   </separator>
   <separator name="electronic spin" >
    <i type="int" name="ISPIN">     1</i>
    <i type="logical" name="LNONCOLLINEAR"> F  </i>
    <v name="MAGMOM">      1.00000000      1.00000000      1.00000000      1.00000000</v>
    <i name="NUPDOWN">     -1.00000000</i>
    <i type="logical" name="LSORBIT"> F  </i>
    <v name="SAXIS">      0.00000000      0.00000000      1.00000000</v>
    <i type="logical" name="LSPIRAL"> F  </i>
    <v name="QSPIRAL">      0.00000000      0.00000000      0.00000000</v>
    <i type="logical" name="LZEROZ"> F  </i>
   </separator>
   <separator name="electronic exchange-correlation" >
    <i type="logical" name="LASPH"> F  </i>
    <i type="logical" name="LMETAGGA"> F  </i>
   </separator>
   <separator name="electronic convergence" >
    <i type="int" name="NELM">   150</i>
    <i type="int" name="NELMDL">    -5</i>
    <i type="int" name="NELMIN">     5</i>
    <i name="ENINI">    520.00000000</i>
    <separator name="electronic convergence detail" >
     <i type="logical" name="LDIAG"> T  </i>
     <i type="logical" name="LSUBROT"> F  </i>
     <i name="WEIMIN">      0.00000000</i>
     <i name="EBREAK">      0.00000000</i>
     <i name="DEPER">      0.30000000</i>
     <i type="int" name="NRMM">     4</i>
     <i name="TIME">      0.40000000</i>
    </separator>
   </separator>
   <separator name="electronic mixer" >
    <i name="AMIX">      0.40000000</i>
    <i name="BMIX">      1.00000000</i>
    <i name="AMIN">      0.10000000</i>
    <i name="AMIX_MAG">      1.60000000</i>
    <i name="BMIX_MAG">      1.00000000</i>
    <separator name="electronic mixer details" >
     <i type="int" name="IMIX">     4</i>
     <i type="logical" name="MIXFIRST"> F  </i>
     <i type="int" name="MAXMIX">   -45</i>
     <i name="WC">    100.00000000</i>
     <i type="int" name="INIMIX">     1</i>
     <i type="int" name="MIXPRE">     1</i>
     <i type="int" name="MREMOVE">     5</i>
    </separator>
   </separator>
   <separator name="electronic dipolcorrection" >
    <i type="logical" name="LDIPOL"> F  </i>
    <i type="logical" name="LMONO"> F  </i>
    <i type="int" name="IDIPOL">     0</i>
    <i name="EPSILON">      1.00000000</i>
    <v name="DIPOL">   -100.00000000   -100.00000000   -100.00000000</v>
    <i name="EFIELD">      0.00000000</i>
   </separator>
  </separator>
  <separator name="grids" >
   <i type="int" name="NGX">    48</i>
   <i type="int" name="NGY">    48</i>
   <i type="int" name="NGZ">    48</i>
   <i type="int" name="NGXF">    96</i>
   <i type="int" name="NGYF">    96</i>
   <i type="int" name="NGZF">    96</i>
   <i type="logical" name="ADDGRID"> F  </i>
  </separator>
  <separator name="ionic" >
   <i type="int" name="NSW">     0</i>
   <i type="int" name="IBRION">    -1</i>
   <i type="int" name="MDALGO">     0</i>
   <i type="int" name="ISIF">     3</i>
   <i name="PSTRESS">      0.00000000</i>
   <i name="EDIFFG">      0.00000010</i>
   <i type="int" name="NFREE">     0</i>
   <i name="POTIM">      0.50000000</i>
   <i name="SMASS">     -3.00000000</i>
   <i name="SCALEE">      1.00000000</i>
  </separator>
  <separator name="ionic md" >
   <i name="TEBEG">      0.00010000</i>
   <i name="TEEND">      0.00010000</i>
   <i type="int" name="NBLOCK">     1</i>
   <i type="int" name="KBLOCK">     1</i>
   <i type="int" name="NPACO">   256</i>
   <i name="APACO">     16.00000000</i>
  </separator>
  <separator name="symmetry" >
   <i type="int" name="ISYM">     2</i>
   <i name="SYMPREC">      0.00001000</i>
  </separator>
  <separator name="dos" >
   <i type="int" name="LORBIT">     0</i>
   <v name="RWIGS">     -1.00000000     -1.00000000     -1.00000000</v>
   <i type="int" name="NEDOS">   301</i>
   <i name="EMIN">     10.00000000</i>
   <i name="EMAX">    -10.00000000</i>
   <i name="EFERMI">      0.00000000</i>
  </separator>
  <separator name="writing" >
   <i type="int" name="NWRITE">     2</i>
   <i type="logical" name="LWAVE"> F  </i>
   <i type="logical" name="LDOWNSAMPLE"> F  </i>
   <i type="logical" name="LCHARG"> F  </i>
   <i type="logical" name="LPARD"> F  </i>
   <i type="logical" name="LVTOT"> F  </i>
   <i type="logical" name="LVHAR"> F  </i>
   <i type="logical" name="LELF"> F  </i>
   <i type="logical" name="LOPTICS"> F  </i>
   <v name="STM">      0.00000000      0.00000000      0.00000000      0.00000000      0.00000000      0.00000000      0.00000000</v>
  </separator>
  <separator name="performance" >
   <i type="int" name="NPAR">     1</i>
   <i type="int" name="NSIM">     4</i>
   <i type="int" name="NBLK">    -1</i>
   <i type="logical" name="LPLANE"> T  </i>
   <i type="logical" name="LSCALAPACK"> T  </i>
   <i type="logical" name="LSCAAWARE"> F  </i>
   <i type="logical" name="LSCALU"> F  </i>
   <i type="logical" name="LASYNC"> F  </i>
   <i type="logical" name="LORBITALREAL"> F  </i>
  </separator>
  <separator name="miscellaneous" >
   <i type="int" name="IDIOT">     3</i>
   <i type="int" name="ISPECIAL">     0</i>
   <i type="logical" name="LMUSIC"> F  </i>
   <v name="POMASS">    208.98000000     39.09800000     85.46800000</v>
   <v name="DARWINR">      0.00000000      0.00000000      0.00000000</v>
   <v name="DARWINV">      1.00000000      1.00000000      1.00000000</v>
   <i type="logical" name="LCORR"> T  </i>
  </separator>
  <i type="logical" name="GGA_COMPAT"> T  </i>
  <i type="logical" name="LBERRY"> F  </i>
  <i type="int" name="ICORELEVEL">     0</i>
  <i type="logical" name="LDAU"> F  </i>
  <i type="int" name="I_CONSTRAINED_M">     0</i>
  <separator name="electronic exchange-correlation" >
   <i type="string" name="GGA">PE</i>
   <i type="int" name="VOSKOWN">     0</i>
   <i type="logical" name="LHFCALC"> F  </i>
   <i type="string" name="PRECFOCK"></i>
   <i type="logical" name="LSYMGRAD"> F  </i>
   <i type="logical" name="LHFONE"> F  </i>
   <i type="logical" name="LRHFCALC"> F  </i>
   <i type="logical" name="LTHOMAS"> F  </i>
   <i type="logical" name="LMODELHF"> F  </i>
   <i name="ENCUT4O">     -1.00000000</i>
   <i type="int" name="EXXOEP">     0</i>
   <i type="int" name="FOURORBIT">     0</i>
   <i name="AEXX">      0.00000000</i>
   <i name="HFALPHA">      0.00000000</i>
   <i name="MCALPHA">      0.00000000</i>
   <i name="ALDAX">      1.00000000</i>
   <i name="AGGAX">      1.00000000</i>
   <i name="ALDAC">      1.00000000</i>
   <i name="AGGAC">      1.00000000</i>
   <i type="int" name="NKREDX">     1</i>
   <i type="int" name="NKREDY">     1</i>
   <i type="int" name="NKREDZ">     1</i>
   <i type="logical" name="SHIFTRED"> F  </i>
   <i type="logical" name="ODDONLY"> F  </i>
   <i type="logical" name="EVENONLY"> F  </i>
   <i type="int" name="LMAXFOCK">     0</i>
   <i type="int" name="NMAXFOCKAE">     0</i>
   <i type="logical" name="LFOCKAEDFT"> F  </i>
   <i name="HFSCREEN">      0.00000000</i>
   <i name="HFSCREENC">      0.00000000</i>
   <i type="int" name="NBANDSGWLOW">     0</i>
  </separator>
  <separator name="vdW DFT" >
   <i type="logical" name="LUSE_VDW"> F  </i>
   <i name="Zab_VDW">     -0.84910000</i>
   <i name="PARAM1">      0.12340000</i>
   <i name="PARAM2">      1.00000000</i>
   <i name="PARAM3">      0.00000000</i>
  </separator>
  <separator name="model GW" >
   <i type="int" name="MODEL_GW">     0</i>
   <i name="MODEL_EPS0">     25.70333602</i>
   <i name="MODEL_ALPHA">      1.00000000</i>
  </separator>
  <separator name="linear response parameters" >
   <i type="logical" name="LEPSILON"> F  </i>
   <i type="logical" name="LRPA"> F  </i>
   <i type="logical" name="LNABLA"> F  </i>
   <i type="logical" name="LVEL"> F  </i>
   <i type="int" name="KINTER">     0</i>
   <i name="CSHIFT">      0.10000000</i>
   <i name="OMEGAMAX">     -1.00000000</i>
   <i name="DEG_THRESHOLD">      0.00200000</i>
   <i name="RTIME">     -0.10000000</i>
   <i name="WPLASMAI">      0.00000000</i>
   <v name="DFIELD">      0.00000000      0.00000000      0.00000000</v>
   <v name="WPLASMA">      0.00000000      0.00000000      0.00000000      0.00000000      0.00000000      0.00000000      0.00000000      0.00000000      0.00000000</v>
  </separator>
  <separator name="orbital magnetization" >
   <i type="logical" name="NUCIND"> F  </i>
   <v name="MAGPOS">      0.00000000      0.00000000      0.00000000</v>
   <i type="logical" name="LNICSALL"> T  </i>
   <i type="logical" name="ORBITALMAG"> F  </i>
   <i type="logical" name="LMAGBLOCH"> F  </i>
   <i type="logical" name="LCHIMAG"> F  </i>
   <i type="logical" name="LGAUGE"> T  </i>
   <i type="int" name="MAGATOM">     0</i>
   <v name="MAGDIPOL">      0.00000000      0.00000000      0.00000000</v>
   <v name="AVECCONST">      0.00000000      0.00000000      0.00000000</v>
  </separator>
  <separator name="response functions" >
   <i type="logical" name="LADDER"> F  </i>
   <i type="logical" name="LRPAFORCE"> F  </i>
   <i type="logical" name="LFXC"> F  </i>
   <i type="logical" name="LHARTREE"> T  </i>
   <i type="int" name="IBSE">     0</i>
   <v type="int" name="KPOINT">    -1     0     0     0</v>
   <i type="logical" name="LTCTE"> F  </i>
   <i type="logical" name="LTETE"> F  </i>
   <i type="logical" name="LTRIPLET"> F  </i>
   <i type="logical" name="LFXCEPS"> F  </i>
   <i type="logical" name="LFXHEG"> F  </i>
   <i type="int" name="NATURALO">     2</i>
   <i type="logical" name="L2ORDER"> F  </i>
   <i type="logical" name="LMP2LT"> F  </i>
   <i type="logical" name="LUSEW"> F  </i>
   <i name="ENCUTGW">     -2.00000000</i>
   <i name="ENCUTGWSOFT">     -2.00000000</i>
   <i name="ENCUTLF">     -1.00000000</i>
   <i type="int" name="LMAXMP2">    -1</i>
   <i name="SCISSOR">      0.00000000</i>
   <i type="int" name="NOMEGA">     0</i>
   <i type="int" name="NOMEGAR">     0</i>
   <i type="int" name="NBANDSGW">    -1</i>
   <i type="int" name="NBANDSO">    -1</i>
   <i type="int" name="NBANDSV">    -1</i>
   <i type="int" name="NELM">   150</i>
   <i type="int" name="NELMHF">     1</i>
   <i type="int" name="DIM">     3</i>
   <i type="int" name="ANTIRES">     0</i>
   <i name="OMEGAMAX">    -30.00000000</i>
   <i name="OMEGAMIN">    -30.00000000</i>
   <i name="OMEGATL">   -200.00000000</i>
   <i type="int" name="OMEGAGRID">   140</i>
   <i name="CSHIFT">     -0.10000000</i>
   <i type="logical" name="SELFENERGY"> F  </i>
   <i type="logical" name="LSPECTRAL"> F  </i>
   <i type="logical" name="LSPECTRALGW"> F  </i>
   <i type="logical" name="LSINGLES"> F  </i>
   <i type="logical" name="LFERMIGW"> F  </i>
   <i type="logical" name="ODDONLYGW"> F  </i>
   <i type="logical" name="EVENONLYGW"> F  </i>
   <i type="int" name="NKREDLFX">     1</i>
   <i type="int" name="NKREDLFY">     1</i>
   <i type="int" name="NKREDLFZ">     1</i>
   <i type="int" name="MAXMEM">  2800</i>
   <i type="int" name="TELESCOPE">     0</i>
   <i type="int" name="TAUPAR">     1</i>
   <i type="int" name="OMEGAPAR">    -1</i>
   <i name="LAMBDA">      1.00000000</i>
  </separator>
  <separator name="External order field" >
   <i name="OFIELD_KAPPA">      0.00000000</i>
   <v name="OFIELD_K">      0.00000000      0.00000000      0.00000000</v>
   <i name="OFIELD_Q6_NEAR">      0.00000000</i>
   <i name="OFIELD_Q6_FAR">      0.00000000</i>
   <i name="OFIELD_A">      0.00000000</i>
  </separator>
 </parameters>
 <atominfo>
  <atoms>       4 </atoms>
  <types>       3 </types>
  <array name="atoms" >
   <dimension dim="1">ion</dimension>
   <field type="string">element</field>
   <field type="int">atomtype</field>
   <set>
    <rc><c>Bi</c><c>   1</c></rc>
    <rc><c>K </c><c>   2</c></rc>
    <rc><c>K </c><c>   2</c></rc>
    <rc><c>Rb</c><c>   3</c></rc>
   </set>
  </array>
  <array name="atomtypes" >
   <dimension dim="1">type</dimension>
   <field type="int">atomspertype</field>
   <field type="string">element</field>
   <field>mass</field>
   <field>valence</field>
   <field type="string">pseudopotential</field>
   <set>
    <rc><c>   1</c><c>Bi</c><c>    208.98000000</c><c>     15.00000000</c><c>  PAW_PBE Bi_d 06Sep2000                </c></rc>
    <rc><c>   2</c><c>K </c><c>     39.09800000</c><c>      9.00000000</c><c>  PAW_PBE K_sv 06Sep2000                </c></rc>
    <rc><c>   1</c><c>Rb</c><c>     85.46800000</c><c>      9.00000000</c><c>  PAW_PBE Rb_sv 06Sep2000               </c></rc>
   </set>
  </array>
 </atominfo>
 <structure name="initialpos" >
  <crystal>
   <varray name="basis" >
    <v>       0.00000000       4.40848546       4.40848546 </v>
    <v>       4.40848546       0.00000000       4.40848546 </v>
    <v>       4.40848546       4.40848546       0.00000000 </v>
   </varray>
   <i name="volume">    171.35557349 </i>
   <varray name="rec_basis" >
    <v>      -0.11341764       0.11341764       0.11341764 </v>
    <v>       0.11341764      -0.11341764       0.11341764 </v>
    <v>       0.11341764       0.11341764      -0.11341764 </v>
   </varray>
  </crystal>
  <varray name="positions" >
   <v>       0.24999994       0.24999994       0.24999994 </v>
   <v>       0.00000000       0.00000000       0.00000000 </v>
   <v>       0.49999989       0.49999989       0.49999989 </v>
   <v>       0.74999983       0.74999983       0.74999983 </v>
  </varray>
 </structure>
 <calculation>
  <scstep>
   <time name="dav">    0.49    0.49</time>
   <time name="total">    0.58    0.58</time>
   <energy>
    <i name="alphaZ">    138.15409325 </i>
    <i name="ewald">  -2702.40066263 </i>
    <i name="hartreedc">  -1207.57179819 </i>
    <i name="XCdc">    148.22473519 </i>
    <i name="pawpsdc">   3368.52235606 </i>
    <i name="pawaedc">  -3324.32309837 </i>
    <i name="eentropy">     -0.00259712 </i>
    <i name="bandstr">   -205.01057849 </i>
    <i name="atom">   4171.71390993 </i>
    <i name="e_fr_energy">    387.30635963 </i>
    <i name="e_wo_entrp">    387.30895676 </i>
    <i name="e_0_energy">    387.30765820 </i>
   </energy>
  </scstep>
  <scstep>
   <time name="dav">    0.49    0.50</time>
   <time name="total">    0.50    0.50</time>
   <energy>
    <i name="e_fr_energy">     24.73854934 </i>
    <i name="e_wo_entrp">     24.74121912 </i>
    <i name="e_0_energy">     24.73988423 </i>
   </energy>
  </scstep>
  <scstep>
   <time name="dav">    0.62    0.62</time>
   <time name="total">    0.62    0.62</time>
   <energy>
    <i name="e_fr_energy">     -7.99642860 </i>
    <i name="e_wo_entrp">     -7.99642860 </i>
    <i name="e_0_energy">     -7.99642860 </i>
   </energy>
  </scstep>
  <scstep>
   <time name="dav">    0.64    0.65</time>
   <time name="total">    0.64    0.65</time>
   <energy>
    <i name="e_fr_energy">     -9.13714834 </i>
    <i name="e_wo_entrp">     -9.13714834 </i>
    <i name="e_0_energy">     -9.13714834 </i>
   </energy>
  </scstep>
  <scstep>
   <time name="dav">    0.64    0.65</time>
   <time name="total">    0.71    0.71</time>
   <energy>
    <i name="e_fr_energy">     -9.19435119 </i>
    <i name="e_wo_entrp">     -9.19435119 </i>
    <i name="e_0_energy">     -9.19435119 </i>
   </energy>
  </scstep>
  <scstep>
   <time name="dav">    0.49    0.49</time>
   <time name="total">    0.64    0.64</time>
   <energy>
    <i name="e_fr_energy">     -8.48521468 </i>
    <i name="e_wo_entrp">     -8.48521468 </i>
    <i name="e_0_energy">     -8.48521468 </i>
   </energy>
  </scstep>
  <scstep>
   <time name="dav">    0.62    0.62</time>
   <time name="total">    0.77    0.77</time>
   <energy>
    <i name="e_fr_energy">     -8.35782409 </i>
    <i name="e_wo_entrp">     -8.35777547 </i>
    <i name="e_0_energy">     -8.35779978 </i>
   </energy>
  </scstep>
  <scstep>
   <time name="dav">    0.55    0.55</time>
   <time name="total">    0.70    0.70</time>
   <energy>
    <i name="e_fr_energy">     -8.36548638 </i>
    <i name="e_wo_entrp">     -8.36547092 </i>
    <i name="e_0_energy">     -8.36547865 </i>
   </energy>
  </scstep>
  <scstep>
   <time name="dav">    0.53    0.53</time>
   <time name="total">    0.68    0.68</time>
   <energy>
    <i name="e_fr_energy">     -8.36411208 </i>
    <i name="e_wo_entrp">     -8.36404056 </i>
    <i name="e_0_energy">     -8.36407632 </i>
   </energy>
  </scstep>
  <scstep>
   <time name="dav">    0.64    0.64</time>
   <time name="total">    0.79    0.79</time>
   <energy>
    <i name="e_fr_energy">     -8.36402989 </i>
    <i name="e_wo_entrp">     -8.36399248 </i>
    <i name="e_0_energy">     -8.36401119 </i>
   </energy>
  </scstep>
  <scstep>
   <time name="dav">    0.59    0.59</time>
   <time name="total">    0.74    0.75</time>
   <energy>
    <i name="e_fr_energy">     -8.36408376 </i>
    <i name="e_wo_entrp">     -8.36404746 </i>
    <i name="e_0_energy">     -8.36406561 </i>
   </energy>
  </scstep>
  <scstep>
   <time name="dav">    0.58    0.58</time>
   <time name="total">    0.72    0.73</time>
   <energy>
    <i name="e_fr_energy">     -8.36406155 </i>
    <i name="e_wo_entrp">     -8.36402191 </i>
    <i name="e_0_energy">     -8.36404173 </i>
   </energy>
  </scstep>
  <scstep>
   <time name="dav">    0.58    0.58</time>
   <time name="total">    0.73    0.73</time>
   <energy>
    <i name="e_fr_energy">     -8.36406157 </i>
    <i name="e_wo_entrp">     -8.36402195 </i>
    <i name="e_0_energy">     -8.36404176 </i>
   </energy>
  </scstep>
  <scstep>
   <time name="dav">    0.54    0.54</time>
   <time name="total">    0.69    0.69</time>
   <energy>
    <i name="e_fr_energy">     -8.36406156 </i>
    <i name="e_wo_entrp">     -8.36402180 </i>
    <i name="e_0_energy">     -8.36404168 </i>
   </energy>
  </scstep>
  <scstep>
   <time name="dav">    0.45    0.45</time>
   <time name="total">    0.60    0.60</time>
   <energy>
    <i name="e_fr_energy">     -8.36406155 </i>
    <i name="e_wo_entrp">     -8.36402177 </i>
    <i name="e_0_energy">     -8.36404166 </i>
   </energy>
  </scstep>
  <scstep>
   <time name="dav">    0.44    0.44</time>
   <time name="total">    0.59    0.59</time>
   <energy>
    <i name="e_fr_energy">     -8.36406156 </i>
    <i name="e_wo_entrp">     -8.36402178 </i>
    <i name="e_0_energy">     -8.36404167 </i>
   </energy>
  </scstep>
  <scstep>
   <time name="dav">    0.42    0.42</time>
   <time name="total">    0.57    0.57</time>
   <energy>
    <i name="e_fr_energy">     -8.36406158 </i>
    <i name="e_wo_entrp">     -8.36402181 </i>
    <i name="e_0_energy">     -8.36404169 </i>
   </energy>
  </scstep>
  <scstep>
   <time name="dav">    0.38    0.38</time>
   <time name="total">    0.47    0.47</time>
   <energy>
    <i name="alphaZ">    138.15409325 </i>
    <i name="ewald">  -2702.40066263 </i>
    <i name="hartreedc">  -1206.78656764 </i>
    <i name="XCdc">    148.07412244 </i>
    <i name="pawpsdc">   3500.09811533 </i>
    <i name="pawaedc">  -3459.16819018 </i>
    <i name="eentropy">     -0.00003977 </i>
    <i name="bandstr">   -598.04884231 </i>
    <i name="atom">   4171.71390993 </i>
    <i name="e_fr_energy">     -8.36406158 </i>
    <i name="e_wo_entrp">     -8.36402181 </i>
    <i name="e_0_energy">     -8.36404169 </i>
   </energy>
  </scstep>
  <structure>
   <crystal>
    <varray name="basis" >
     <v>       0.00000000       4.40848546       4.40848546 </v>
     <v>       4.40848546       0.00000000       4.40848546 </v>
     <v>       4.40848546       4.40848546       0.00000000 </v>
    </varray>
    <i name="volume">    171.35557349 </i>
    <varray name="rec_basis" >
     <v>      -0.11341764       0.11341764       0.11341764 </v>
     <v>       0.11341764      -0.11341764       0.11341764 </v>
     <v>       0.11341764       0.11341764      -0.11341764 </v>
    </varray>
   </crystal>
   <varray name="positions" >
    <v>       0.24999994       0.24999994       0.24999994 </v>
    <v>       0.00000000       0.00000000       0.00000000 </v>
    <v>       0.49999989       0.49999989       0.49999989 </v>
    <v>       0.74999983       0.74999983       0.74999983 </v>
   </varray>
  </structure>
  <varray name="forces" >
   <v>      -0.00000000       0.00000000      -0.00000000 </v>
   <v>       0.00000000       0.00000000       0.00000000 </v>
   <v>      -0.00000000      -0.00000000      -0.00000000 </v>
   <v>      -0.00000000      -0.00000000      -0.00000000 </v>
  </varray>
  <varray name="stress" >
   <v>       0.07156393       0.00000000      -0.00000000 </v>
   <v>       0.00000000       0.07156393      -0.00000000 </v>
   <v>       0.00000000       0.00000000       0.07156393 </v>
  </varray>
  <energy>
   <i name="e_fr_energy">     -8.36406158 </i>
   <i name="e_wo_entrp">     -8.36404169 </i>
   <i name="e_0_energy">     -0.00003977 </i>
  </energy>
  <time name="totalsc">   12.37   12.40</time>
  <eigenvalues>
   <array>
    <dimension dim="1">band</dimension>
    <dimension dim="2">kpoint</dimension>
    <dimension dim="3">spin</dimension>
    <field>eigene</field>
    <field>occ</field>
    <set>
     <set comment="spin 1">
      <set comment="kpoint 1">
       <r>  -29.4979    1.0000 </r>
       <r>  -29.4875    1.0000 </r>
       <r>  -26.8495    1.0000 </r>
       <r>  -19.4904    1.0000 </r>
       <r>  -19.4904    1.0000 </r>
       <r>  -19.4904    1.0000 </r>
       <r>  -19.4846    1.0000 </r>
       <r>  -19.4846    1.0000 </r>
       <r>  -13.0323    1.0000 </r>
       <r>  -13.0323    1.0000 </r>
       <r>  -13.0323    1.0000 </r>
       <r>  -12.9833    1.0000 </r>
       <r>  -12.9833    1.0000 </r>
       <r>  -12.9833    1.0000 </r>
       <r>  -10.9527    1.0000 </r>
       <r>  -10.9527    1.0000 </r>
       <r>  -10.9527    1.0000 </r>
       <r>   -7.5081    1.0000 </r>
       <r>    1.3719    0.9902 </r>
       <r>    1.3719    0.9902 </r>
       <r>    1.3719    0.9902 </r>
       <r>    1.5101    0.0576 </r>
       <r>    3.9888    0.0000 </r>
       <r>    3.9888    0.0000 </r>
       <r>    4.5412    0.0000 </r>
      </set>
      <set comment="kpoint 2">
       <r>  -29.4974    1.0000 </r>
       <r>  -29.4879    1.0000 </r>
       <r>  -26.8496    1.0000 </r>
       <r>  -19.4904    1.0000 </r>
       <r>  -19.4904    1.0000 </r>
       <r>  -19.4904    1.0000 </r>
       <r>  -19.4846    1.0000 </r>
       <r>  -19.4846    1.0000 </r>
       <r>  -13.0331    1.0000 </r>
       <r>  -13.0309    1.0000 </r>
       <r>  -13.0309    1.0000 </r>
       <r>  -12.9855    1.0000 </r>
       <r>  -12.9855    1.0000 </r>
       <r>  -12.9843    1.0000 </r>
       <r>  -10.9548    1.0000 </r>
       <r>  -10.9519    1.0000 </r>
       <r>  -10.9519    1.0000 </r>
       <r>   -7.4935    1.0000 </r>
       <r>    0.8299    1.0000 </r>
       <r>    1.3371    0.9995 </r>
       <r>    1.3371    0.9995 </r>
       <r>    2.1893    0.0000 </r>
       <r>    4.1079    0.0000 </r>
       <r>    4.1079    0.0000 </r>
       <r>    4.4518    0.0000 </r>
      </set>
      <set comment="kpoint 3">
       <r>  -29.4962    1.0000 </r>
       <r>  -29.4889    1.0000 </r>
       <r>  -26.8498    1.0000 </r>
       <r>  -19.4904    1.0000 </r>
       <r>  -19.4904    1.0000 </r>
       <r>  -19.4902    1.0000 </r>
       <r>  -19.4846    1.0000 </r>
       <r>  -19.4846    1.0000 </r>
       <r>  -13.0329    1.0000 </r>
       <r>  -13.0268    1.0000 </r>
       <r>  -13.0268    1.0000 </r>
       <r>  -12.9916    1.0000 </r>
       <r>  -12.9916    1.0000 </r>
       <r>  -12.9893    1.0000 </r>
       <r>  -10.9591    1.0000 </r>
       <r>  -10.9498    1.0000 </r>
       <r>  -10.9498    1.0000 </r>
       <r>   -7.4593    1.0000 </r>
       <r>    0.4098    1.0000 </r>
       <r>    1.2616    1.0000 </r>
       <r>    1.2616    1.0000 </r>
       <r>    2.8855    0.0000 </r>
       <r>    4.3969    0.0000 </r>
       <r>    4.3969    0.0000 </r>
       <r>    4.4908    0.0000 </r>
      </set>
      <set comment="kpoint 4">
       <r>  -29.4945    1.0000 </r>
       <r>  -29.4905    1.0000 </r>
       <r>  -26.8500    1.0000 </r>
       <r>  -19.4903    1.0000 </r>
       <r>  -19.4903    1.0000 </r>
       <r>  -19.4900    1.0000 </r>
       <r>  -19.4846    1.0000 </r>
       <r>  -19.4846    1.0000 </r>
       <r>  -13.0279    1.0000 </r>
       <r>  -13.0204    1.0000 </r>
       <r>  -13.0204    1.0000 </r>
       <r>  -13.0001    1.0000 </r>
       <r>  -13.0001    1.0000 </r>
       <r>  -12.9992    1.0000 </r>
       <r>  -10.9624    1.0000 </r>
       <r>  -10.9477    1.0000 </r>
       <r>  -10.9477    1.0000 </r>
       <r>   -7.4266    1.0000 </r>
       <r>    0.1673    1.0000 </r>
       <r>    1.1956    1.0000 </r>
       <r>    1.1956    1.0000 </r>
       <r>    3.2727    0.0000 </r>
       <r>    4.6851    0.0000 </r>
       <r>    4.6851    0.0000 </r>
       <r>    4.9635    0.0000 </r>
      </set>
      <set comment="kpoint 5">
       <r>  -29.4925    1.0000 </r>
       <r>  -29.4924    1.0000 </r>
       <r>  -26.8500    1.0000 </r>
       <r>  -19.4903    1.0000 </r>
       <r>  -19.4903    1.0000 </r>
       <r>  -19.4899    1.0000 </r>
       <r>  -19.4846    1.0000 </r>
       <r>  -19.4846    1.0000 </r>
       <r>  -13.0221    1.0000 </r>
       <r>  -13.0146    1.0000 </r>
       <r>  -13.0146    1.0000 </r>
       <r>  -13.0072    1.0000 </r>
       <r>  -13.0068    1.0000 </r>
       <r>  -13.0068    1.0000 </r>
       <r>  -10.9634    1.0000 </r>
       <r>  -10.9469    1.0000 </r>
       <r>  -10.9469    1.0000 </r>
       <r>   -7.4135    1.0000 </r>
       <r>    0.0879    1.0000 </r>
       <r>    1.1705    1.0000 </r>
       <r>    1.1705    1.0000 </r>
       <r>    3.4123    0.0000 </r>
       <r>    4.6799    0.0000 </r>
       <r>    4.8043    0.0000 </r>
       <r>    4.8043    0.0000 </r>
      </set>
      <set comment="kpoint 6">
       <r>  -29.4973    1.0000 </r>
       <r>  -29.4880    1.0000 </r>
       <r>  -26.8496    1.0000 </r>
       <r>  -19.4904    1.0000 </r>
       <r>  -19.4904    1.0000 </r>
       <r>  -19.4904    1.0000 </r>
       <r>  -19.4846    1.0000 </r>
       <r>  -19.4846    1.0000 </r>
       <r>  -13.0364    1.0000 </r>
       <r>  -13.0364    1.0000 </r>
       <r>  -13.0221    1.0000 </r>
       <r>  -12.9946    1.0000 </r>
       <r>  -12.9810    1.0000 </r>
       <r>  -12.9810    1.0000 </r>
       <r>  -10.9564    1.0000 </r>
       <r>  -10.9511    1.0000 </r>
       <r>  -10.9511    1.0000 </r>
       <r>   -7.4892    1.0000 </r>
       <r>    0.7438    1.0000 </r>
       <r>    1.3508    0.9983 </r>
       <r>    1.3508    0.9983 </r>
       <r>    2.2720    0.0000 </r>
       <r>    4.0946    0.0000 </r>
       <r>    4.1912    0.0000 </r>
       <r>    4.2527    0.0000 </r>
      </set>
      <set comment="kpoint 7">
       <r>  -29.4964    1.0000 </r>
       <r>  -29.4888    1.0000 </r>
       <r>  -26.8498    1.0000 </r>
       <r>  -19.4903    1.0000 </r>
       <r>  -19.4903    1.0000 </r>
       <r>  -19.4902    1.0000 </r>
       <r>  -19.4846    1.0000 </r>
       <r>  -19.4846    1.0000 </r>
       <r>  -13.0392    1.0000 </r>
       <r>  -13.0382    1.0000 </r>
       <r>  -13.0122    1.0000 </r>
       <r>  -13.0063    1.0000 </r>
       <r>  -12.9812    1.0000 </r>
       <r>  -12.9812    1.0000 </r>
       <r>  -10.9598    1.0000 </r>
       <r>  -10.9497    1.0000 </r>
       <r>  -10.9491    1.0000 </r>
       <r>   -7.4631    1.0000 </r>
       <r>    0.4556    1.0000 </r>
       <r>    1.2649    1.0000 </r>
       <r>    1.3048    1.0000 </r>
       <r>    2.8208    0.0000 </r>
       <r>    4.0898    0.0000 </r>
       <r>    4.2985    0.0000 </r>
       <r>    4.3915    0.0000 </r>
      </set>
      <set comment="kpoint 8">
       <r>  -29.4949    1.0000 </r>
       <r>  -29.4901    1.0000 </r>
       <r>  -26.8500    1.0000 </r>
       <r>  -19.4903    1.0000 </r>
       <r>  -19.4903    1.0000 </r>
       <r>  -19.4900    1.0000 </r>
       <r>  -19.4846    1.0000 </r>
       <r>  -19.4846    1.0000 </r>
       <r>  -13.0381    1.0000 </r>
       <r>  -13.0357    1.0000 </r>
       <r>  -13.0190    1.0000 </r>
       <r>  -13.0015    1.0000 </r>
       <r>  -12.9871    1.0000 </r>
       <r>  -12.9857    1.0000 </r>
       <r>  -10.9618    1.0000 </r>
       <r>  -10.9489    1.0000 </r>
       <r>  -10.9471    1.0000 </r>
       <r>   -7.4319    1.0000 </r>
       <r>    0.2557    1.0000 </r>
       <r>    1.1361    1.0000 </r>
       <r>    1.2353    1.0000 </r>
       <r>    3.2934    0.0000 </r>
       <r>    4.3207    0.0000 </r>
       <r>    4.4340    0.0000 </r>
       <r>    4.6002    0.0000 </r>
      </set>
      <set comment="kpoint 9">
       <r>  -29.4931    1.0000 </r>
       <r>  -29.4918    1.0000 </r>
       <r>  -26.8501    1.0000 </r>
       <r>  -19.4902    1.0000 </r>
       <r>  -19.4902    1.0000 </r>
       <r>  -19.4899    1.0000 </r>
       <r>  -19.4846    1.0000 </r>
       <r>  -19.4846    1.0000 </r>
       <r>  -13.0369    1.0000 </r>
       <r>  -13.0288    1.0000 </r>
       <r>  -13.0245    1.0000 </r>
       <r>  -12.9983    1.0000 </r>
       <r>  -12.9935    1.0000 </r>
       <r>  -12.9908    1.0000 </r>
       <r>  -10.9620    1.0000 </r>
       <r>  -10.9486    1.0000 </r>
       <r>  -10.9461    1.0000 </r>
       <r>   -7.4134    1.0000 </r>
       <r>    0.1704    1.0000 </r>
       <r>    1.0599    1.0000 </r>
       <r>    1.1836    1.0000 </r>
       <r>    3.5615    0.0000 </r>
       <r>    4.1815    0.0000 </r>
       <r>    4.8041    0.0000 </r>
       <r>    4.8282    0.0000 </r>
      </set>
      <set comment="kpoint 10">
       <r>  -29.4937    1.0000 </r>
       <r>  -29.4913    1.0000 </r>
       <r>  -26.8500    1.0000 </r>
       <r>  -19.4903    1.0000 </r>
       <r>  -19.4902    1.0000 </r>
       <r>  -19.4899    1.0000 </r>
       <r>  -19.4846    1.0000 </r>
       <r>  -19.4846    1.0000 </r>
       <r>  -13.0422    1.0000 </r>
       <r>  -13.0184    1.0000 </r>
       <r>  -13.0170    1.0000 </r>
       <r>  -13.0086    1.0000 </r>
       <r>  -13.0029    1.0000 </r>
       <r>  -12.9824    1.0000 </r>
       <r>  -10.9614    1.0000 </r>
       <r>  -10.9487    1.0000 </r>
       <r>  -10.9469    1.0000 </r>
       <r>   -7.4172    1.0000 </r>
       <r>    0.1897    1.0000 </r>
       <r>    1.0766    1.0000 </r>
       <r>    1.1727    1.0000 </r>
       <r>    3.5449    0.0000 </r>
       <r>    4.2054    0.0000 </r>
       <r>    4.7846    0.0000 </r>
       <r>    4.9772    0.0000 </r>
      </set>
      <set comment="kpoint 11">
       <r>  -29.4954    1.0000 </r>
       <r>  -29.4896    1.0000 </r>
       <r>  -26.8499    1.0000 </r>
       <r>  -19.4903    1.0000 </r>
       <r>  -19.4903    1.0000 </r>
       <r>  -19.4901    1.0000 </r>
       <r>  -19.4846    1.0000 </r>
       <r>  -19.4846    1.0000 </r>
       <r>  -13.0437    1.0000 </r>
       <r>  -13.0224    1.0000 </r>
       <r>  -13.0138    1.0000 </r>
       <r>  -13.0055    1.0000 </r>
       <r>  -13.0011    1.0000 </r>
       <r>  -12.9778    1.0000 </r>
       <r>  -10.9601    1.0000 </r>
       <r>  -10.9492    1.0000 </r>
       <r>  -10.9489    1.0000 </r>
       <r>   -7.4413    1.0000 </r>
       <r>    0.3148    1.0000 </r>
       <r>    1.1789    1.0000 </r>
       <r>    1.2073    1.0000 </r>
       <r>    3.2280    0.0000 </r>
       <r>    4.3373    0.0000 </r>
       <r>    4.4210    0.0000 </r>
       <r>    4.6436    0.0000 </r>
      </set>
      <set comment="kpoint 12">
       <r>  -29.4968    1.0000 </r>
       <r>  -29.4885    1.0000 </r>
       <r>  -26.8497    1.0000 </r>
       <r>  -19.4904    1.0000 </r>
       <r>  -19.4903    1.0000 </r>
       <r>  -19.4903    1.0000 </r>
       <r>  -19.4846    1.0000 </r>
       <r>  -19.4846    1.0000 </r>
       <r>  -13.0397    1.0000 </r>
       <r>  -13.0285    1.0000 </r>
       <r>  -13.0230    1.0000 </r>
       <r>  -12.9943    1.0000 </r>
       <r>  -12.9912    1.0000 </r>
       <r>  -12.9789    1.0000 </r>
       <r>  -10.9575    1.0000 </r>
       <r>  -10.9509    1.0000 </r>
       <r>  -10.9503    1.0000 </r>
       <r>   -7.4730    1.0000 </r>
       <r>    0.5554    1.0000 </r>
       <r>    1.2741    1.0000 </r>
       <r>    1.3003    1.0000 </r>
       <r>    2.6660    0.0000 </r>
       <r>    4.2159    0.0000 </r>
       <r>    4.3041    0.0000 </r>
       <r>    4.3351    0.0000 </r>
      </set>
      <set comment="kpoint 13">
       <r>  -29.4960    1.0000 </r>
       <r>  -29.4891    1.0000 </r>
       <r>  -26.8499    1.0000 </r>
       <r>  -19.4903    1.0000 </r>
       <r>  -19.4903    1.0000 </r>
       <r>  -19.4902    1.0000 </r>
       <r>  -19.4846    1.0000 </r>
       <r>  -19.4845    1.0000 </r>
       <r>  -13.0459    1.0000 </r>
       <r>  -13.0459    1.0000 </r>
       <r>  -13.0217    1.0000 </r>
       <r>  -12.9974    1.0000 </r>
       <r>  -12.9757    1.0000 </r>
       <r>  -12.9757    1.0000 </r>
       <r>  -10.9639    1.0000 </r>
       <r>  -10.9473    1.0000 </r>
       <r>  -10.9473    1.0000 </r>
       <r>   -7.4500    1.0000 </r>
       <r>    0.3621    1.0000 </r>
       <r>    1.3053    1.0000 </r>
       <r>    1.3053    1.0000 </r>
       <r>    2.9548    0.0000 </r>
       <r>    3.7065    0.0000 </r>
       <r>    4.4101    0.0000 </r>
       <r>    4.4254    0.0000 </r>
      </set>
      <set comment="kpoint 14">
       <r>  -29.4950    1.0000 </r>
       <r>  -29.4900    1.0000 </r>
       <r>  -26.8500    1.0000 </r>
       <r>  -19.4902    1.0000 </r>
       <r>  -19.4902    1.0000 </r>
       <r>  -19.4901    1.0000 </r>
       <r>  -19.4846    1.0000 </r>
       <r>  -19.4845    1.0000 </r>
       <r>  -13.0494    1.0000 </r>
       <r>  -13.0482    1.0000 </r>
       <r>  -13.0349    1.0000 </r>
       <r>  -12.9848    1.0000 </r>
       <r>  -12.9763    1.0000 </r>
       <r>  -12.9754    1.0000 </r>
       <r>  -10.9656    1.0000 </r>
       <r>  -10.9464    1.0000 </r>
       <r>  -10.9453    1.0000 </r>
       <r>   -7.4290    1.0000 </r>
       <r>    0.3005    1.0000 </r>
       <r>    1.1752    1.0000 </r>
       <r>    1.2653    1.0000 </r>
       <r>    3.2238    0.0000 </r>
       <r>    3.6446    0.0000 </r>
       <r>    4.4175    0.0000 </r>
       <r>    4.6763    0.0000 </r>
      </set>
      <set comment="kpoint 15">
       <r>  -29.4936    1.0000 </r>
       <r>  -29.4913    1.0000 </r>
       <r>  -26.8501    1.0000 </r>
       <r>  -19.4902    1.0000 </r>
       <r>  -19.4901    1.0000 </r>
       <r>  -19.4900    1.0000 </r>
       <r>  -19.4846    1.0000 </r>
       <r>  -19.4845    1.0000 </r>
       <r>  -13.0539    1.0000 </r>
       <r>  -13.0443    1.0000 </r>
       <r>  -13.0367    1.0000 </r>
       <r>  -12.9846    1.0000 </r>
       <r>  -12.9801    1.0000 </r>
       <r>  -12.9750    1.0000 </r>
       <r>  -10.9631    1.0000 </r>
       <r>  -10.9484    1.0000 </r>
       <r>  -10.9444    1.0000 </r>
       <r>   -7.4127    1.0000 </r>
       <r>    0.3353    1.0000 </r>
       <r>    0.9337    1.0000 </r>
       <r>    1.2137    1.0000 </r>
       <r>    3.3940    0.0000 </r>
       <r>    3.9494    0.0000 </r>
       <r>    4.4656    0.0000 </r>
       <r>    4.9074    0.0000 </r>
      </set>
      <set comment="kpoint 16">
       <r>  -29.4927    1.0000 </r>
       <r>  -29.4922    1.0000 </r>
       <r>  -26.8501    1.0000 </r>
       <r>  -19.4902    1.0000 </r>
       <r>  -19.4901    1.0000 </r>
       <r>  -19.4899    1.0000 </r>
       <r>  -19.4846    1.0000 </r>
       <r>  -19.4845    1.0000 </r>
       <r>  -13.0573    1.0000 </r>
       <r>  -13.0346    1.0000 </r>
       <r>  -13.0273    1.0000 </r>
       <r>  -12.9977    1.0000 </r>
       <r>  -12.9888    1.0000 </r>
       <r>  -12.9697    1.0000 </r>
       <r>  -10.9582    1.0000 </r>
       <r>  -10.9523    1.0000 </r>
       <r>  -10.9451    1.0000 </r>
       <r>   -7.4094    1.0000 </r>
       <r>    0.3794    1.0000 </r>
       <r>    0.8062    1.0000 </r>
       <r>    1.1782    1.0000 </r>
       <r>    3.6313    0.0000 </r>
       <r>    4.0212    0.0000 </r>
       <r>    4.8518    0.0000 </r>
       <r>    4.9013    0.0000 </r>
      </set>
      <set comment="kpoint 17">
       <r>  -29.4942    1.0000 </r>
       <r>  -29.4908    1.0000 </r>
       <r>  -26.8500    1.0000 </r>
       <r>  -19.4903    1.0000 </r>
       <r>  -19.4901    1.0000 </r>
       <r>  -19.4900    1.0000 </r>
       <r>  -19.4846    1.0000 </r>
       <r>  -19.4846    1.0000 </r>
       <r>  -13.0538    1.0000 </r>
       <r>  -13.0209    1.0000 </r>
       <r>  -13.0142    1.0000 </r>
       <r>  -13.0115    1.0000 </r>
       <r>  -13.0004    1.0000 </r>
       <r>  -12.9703    1.0000 </r>
       <r>  -10.9583    1.0000 </r>
       <r>  -10.9515    1.0000 </r>
       <r>  -10.9469    1.0000 </r>
       <r>   -7.4208    1.0000 </r>
       <r>    0.3207    1.0000 </r>
       <r>    0.9551    1.0000 </r>
       <r>    1.1749    1.0000 </r>
       <r>    3.6940    0.0000 </r>
       <r>    4.0876    0.0000 </r>
       <r>    4.5133    0.0000 </r>
       <r>    4.7612    0.0000 </r>
      </set>
      <set comment="kpoint 18">
       <r>  -29.4946    1.0000 </r>
       <r>  -29.4903    1.0000 </r>
       <r>  -26.8501    1.0000 </r>
       <r>  -19.4902    1.0000 </r>
       <r>  -19.4901    1.0000 </r>
       <r>  -19.4900    1.0000 </r>
       <r>  -19.4846    1.0000 </r>
       <r>  -19.4845    1.0000 </r>
       <r>  -13.0553    1.0000 </r>
       <r>  -13.0553    1.0000 </r>
       <r>  -13.0488    1.0000 </r>
       <r>  -12.9724    1.0000 </r>
       <r>  -12.9705    1.0000 </r>
       <r>  -12.9705    1.0000 </r>
       <r>  -10.9695    1.0000 </r>
       <r>  -10.9435    1.0000 </r>
       <r>  -10.9435    1.0000 </r>
       <r>   -7.4203    1.0000 </r>
       <r>    0.3000    1.0000 </r>
       <r>    1.2663    1.0000 </r>
       <r>    1.2663    1.0000 </r>
       <r>    3.0252    0.0000 </r>
       <r>    3.2759    0.0000 </r>
       <r>    4.6109    0.0000 </r>
       <r>    4.9278    0.0000 </r>
      </set>
      <set comment="kpoint 19">
       <r>  -29.4940    1.0000 </r>
       <r>  -29.4909    1.0000 </r>
       <r>  -26.8502    1.0000 </r>
       <r>  -19.4901    1.0000 </r>
       <r>  -19.4901    1.0000 </r>
       <r>  -19.4900    1.0000 </r>
       <r>  -19.4846    1.0000 </r>
       <r>  -19.4845    1.0000 </r>
       <r>  -13.0619    1.0000 </r>
       <r>  -13.0552    1.0000 </r>
       <r>  -13.0495    1.0000 </r>
       <r>  -12.9730    1.0000 </r>
       <r>  -12.9714    1.0000 </r>
       <r>  -12.9652    1.0000 </r>
       <r>  -10.9686    1.0000 </r>
       <r>  -10.9440    1.0000 </r>
       <r>  -10.9427    1.0000 </r>
       <r>   -7.4114    1.0000 </r>
       <r>    0.3679    1.0000 </r>
       <r>    1.0873    1.0000 </r>
       <r>    1.2412    1.0000 </r>
       <r>    3.0124    0.0000 </r>
       <r>    3.3711    0.0000 </r>
       <r>    4.8006    0.0000 </r>
       <r>    5.1895    0.0000 </r>
      </set>
      <set comment="kpoint 20">
       <r>  -29.4931    1.0000 </r>
       <r>  -29.4917    1.0000 </r>
       <r>  -26.8502    1.0000 </r>
       <r>  -19.4901    1.0000 </r>
       <r>  -19.4900    1.0000 </r>
       <r>  -19.4900    1.0000 </r>
       <r>  -19.4846    1.0000 </r>
       <r>  -19.4845    1.0000 </r>
       <r>  -13.0645    1.0000 </r>
       <r>  -13.0478    1.0000 </r>
       <r>  -13.0399    1.0000 </r>
       <r>  -12.9834    1.0000 </r>
       <r>  -12.9778    1.0000 </r>
       <r>  -12.9640    1.0000 </r>
       <r>  -10.9632    1.0000 </r>
       <r>  -10.9484    1.0000 </r>
       <r>  -10.9433    1.0000 </r>
       <r>   -7.4072    1.0000 </r>
       <r>    0.5238    1.0000 </r>
       <r>    0.7360    1.0000 </r>
       <r>    1.2060    1.0000 </r>
       <r>    3.2128    0.0000 </r>
       <r>    3.8380    0.0000 </r>
       <r>    4.8469    0.0000 </r>
       <r>    5.1170    0.0000 </r>
      </set>
      <set comment="kpoint 21">
       <r>  -29.4941    1.0000 </r>
       <r>  -29.4908    1.0000 </r>
       <r>  -26.8502    1.0000 </r>
       <r>  -19.4901    1.0000 </r>
       <r>  -19.4901    1.0000 </r>
       <r>  -19.4899    1.0000 </r>
       <r>  -19.4846    1.0000 </r>
       <r>  -19.4845    1.0000 </r>
       <r>  -13.0600    1.0000 </r>
       <r>  -13.0591    1.0000 </r>
       <r>  -13.0591    1.0000 </r>
       <r>  -12.9684    1.0000 </r>
       <r>  -12.9684    1.0000 </r>
       <r>  -12.9620    1.0000 </r>
       <r>  -10.9713    1.0000 </r>
       <r>  -10.9419    1.0000 </r>
       <r>  -10.9419    1.0000 </r>
       <r>   -7.4108    1.0000 </r>
       <r>    0.3470    1.0000 </r>
       <r>    1.2518    1.0000 </r>
       <r>    1.2518    1.0000 </r>
       <r>    2.8214    0.0000 </r>
       <r>    3.1186    0.0000 </r>
       <r>    4.9405    0.0000 </r>
       <r>    5.5442    0.0000 </r>
      </set>
      <set comment="kpoint 22">
       <r>  -29.4955    1.0000 </r>
       <r>  -29.4896    1.0000 </r>
       <r>  -26.8499    1.0000 </r>
       <r>  -19.4903    1.0000 </r>
       <r>  -19.4902    1.0000 </r>
       <r>  -19.4901    1.0000 </r>
       <r>  -19.4846    1.0000 </r>
       <r>  -19.4845    1.0000 </r>
       <r>  -13.0482    1.0000 </r>
       <r>  -13.0347    1.0000 </r>
       <r>  -13.0204    1.0000 </r>
       <r>  -12.9995    1.0000 </r>
       <r>  -12.9882    1.0000 </r>
       <r>  -12.9741    1.0000 </r>
       <r>  -10.9619    1.0000 </r>
       <r>  -10.9485    1.0000 </r>
       <r>  -10.9476    1.0000 </r>
       <r>   -7.4400    1.0000 </r>
       <r>    0.3321    1.0000 </r>
       <r>    1.1879    1.0000 </r>
       <r>    1.2234    1.0000 </r>
       <r>    3.2426    0.0000 </r>
       <r>    3.9612    0.0000 </r>
       <r>    4.3432    0.0000 </r>
       <r>    4.5963    0.0000 </r>
      </set>
      <set comment="kpoint 23">
       <r>  -29.4940    1.0000 </r>
       <r>  -29.4909    1.0000 </r>
       <r>  -26.8501    1.0000 </r>
       <r>  -19.4902    1.0000 </r>
       <r>  -19.4902    1.0000 </r>
       <r>  -19.4900    1.0000 </r>
       <r>  -19.4846    1.0000 </r>
       <r>  -19.4845    1.0000 </r>
       <r>  -13.0530    1.0000 </r>
       <r>  -13.0328    1.0000 </r>
       <r>  -13.0258    1.0000 </r>
       <r>  -12.9994    1.0000 </r>
       <r>  -12.9879    1.0000 </r>
       <r>  -12.9732    1.0000 </r>
       <r>  -10.9610    1.0000 </r>
       <r>  -10.9499    1.0000 </r>
       <r>  -10.9457    1.0000 </r>
       <r>   -7.4183    1.0000 </r>
       <r>    0.3002    1.0000 </r>
       <r>    0.9979    1.0000 </r>
       <r>    1.1744    1.0000 </r>
       <r>    3.5787    0.0000 </r>
       <r>    4.0922    0.0000 </r>
       <r>    4.3187    0.0000 </r>
       <r>    4.8606    0.0000 </r>
      </set>
      <set comment="kpoint 24">
       <r>  -29.4925    1.0000 </r>
       <r>  -29.4924    1.0000 </r>
       <r>  -26.8501    1.0000 </r>
       <r>  -19.4902    1.0000 </r>
       <r>  -19.4901    1.0000 </r>
       <r>  -19.4899    1.0000 </r>
       <r>  -19.4846    1.0000 </r>
       <r>  -19.4846    1.0000 </r>
       <r>  -13.0540    1.0000 </r>
       <r>  -13.0379    1.0000 </r>
       <r>  -13.0157    1.0000 </r>
       <r>  -13.0105    1.0000 </r>
       <r>  -12.9794    1.0000 </r>
       <r>  -12.9774    1.0000 </r>
       <r>  -10.9594    1.0000 </r>
       <r>  -10.9515    1.0000 </r>
       <r>  -10.9449    1.0000 </r>
       <r>   -7.4096    1.0000 </r>
       <r>    0.3101    1.0000 </r>
       <r>    0.9015    1.0000 </r>
       <r>    1.1570    1.0000 </r>
       <r>    3.7408    0.0000 </r>
       <r>    3.9076    0.0000 </r>
       <r>    4.7604    0.0000 </r>
       <r>    4.8344    0.0000 </r>
      </set>
      <set comment="kpoint 25">
       <r>  -29.4941    1.0000 </r>
       <r>  -29.4908    1.0000 </r>
       <r>  -26.8501    1.0000 </r>
       <r>  -19.4902    1.0000 </r>
       <r>  -19.4901    1.0000 </r>
       <r>  -19.4900    1.0000 </r>
       <r>  -19.4846    1.0000 </r>
       <r>  -19.4845    1.0000 </r>
       <r>  -13.0602    1.0000 </r>
       <r>  -13.0441    1.0000 </r>
       <r>  -13.0428    1.0000 </r>
       <r>  -12.9838    1.0000 </r>
       <r>  -12.9738    1.0000 </r>
       <r>  -12.9693    1.0000 </r>
       <r>  -10.9656    1.0000 </r>
       <r>  -10.9467    1.0000 </r>
       <r>  -10.9437    1.0000 </r>
       <r>   -7.4157    1.0000 </r>
       <r>    0.3470    1.0000 </r>
       <r>    1.0845    1.0000 </r>
       <r>    1.1633    1.0000 </r>
       <r>    3.2890    0.0000 </r>
       <r>    3.6232    0.0000 </r>
       <r>    4.5032    0.0000 </r>
       <r>    4.9430    0.0000 </r>
      </set>
      <set comment="kpoint 26">
       <r>  -29.4931    1.0000 </r>
       <r>  -29.4918    1.0000 </r>
       <r>  -26.8502    1.0000 </r>
       <r>  -19.4901    1.0000 </r>
       <r>  -19.4900    1.0000 </r>
       <r>  -19.4900    1.0000 </r>
       <r>  -19.4846    1.0000 </r>
       <r>  -19.4845    1.0000 </r>
       <r>  -13.0663    1.0000 </r>
       <r>  -13.0460    1.0000 </r>
       <r>  -13.0306    1.0000 </r>
       <r>  -12.9969    1.0000 </r>
       <r>  -12.9702    1.0000 </r>
       <r>  -12.9671    1.0000 </r>
       <r>  -10.9612    1.0000 </r>
       <r>  -10.9508    1.0000 </r>
       <r>  -10.9430    1.0000 </r>
       <r>   -7.4076    1.0000 </r>
       <r>    0.4912    1.0000 </r>
       <r>    0.8124    1.0000 </r>
       <r>    1.1158    1.0000 </r>
       <r>    3.3461    0.0000 </r>
       <r>    3.9656    0.0000 </r>
       <r>    4.6189    0.0000 </r>
       <r>    4.9521    0.0000 </r>
      </set>
      <set comment="kpoint 27">
       <r>  -29.4929    1.0000 </r>
       <r>  -29.4919    1.0000 </r>
       <r>  -26.8502    1.0000 </r>
       <r>  -19.4902    1.0000 </r>
       <r>  -19.4900    1.0000 </r>
       <r>  -19.4900    1.0000 </r>
       <r>  -19.4846    1.0000 </r>
       <r>  -19.4845    1.0000 </r>
       <r>  -13.0639    1.0000 </r>
       <r>  -13.0417    1.0000 </r>
       <r>  -13.0149    1.0000 </r>
       <r>  -13.0123    1.0000 </r>
       <r>  -12.9768    1.0000 </r>
       <r>  -12.9666    1.0000 </r>
       <r>  -10.9566    1.0000 </r>
       <r>  -10.9548    1.0000 </r>
       <r>  -10.9439    1.0000 </r>
       <r>   -7.4086    1.0000 </r>
       <r>    0.4799    1.0000 </r>
       <r>    0.7642    1.0000 </r>
       <r>    1.1240    1.0000 </r>
       <r>    3.5216    0.0000 </r>
       <r>    4.2194    0.0000 </r>
       <r>    4.4134    0.0000 </r>
       <r>    4.9234    0.0000 </r>
      </set>
      <set comment="kpoint 28">
       <r>  -29.4936    1.0000 </r>
       <r>  -29.4912    1.0000 </r>
       <r>  -26.8502    1.0000 </r>
       <r>  -19.4901    1.0000 </r>
       <r>  -19.4901    1.0000 </r>
       <r>  -19.4900    1.0000 </r>
       <r>  -19.4846    1.0000 </r>
       <r>  -19.4845    1.0000 </r>
       <r>  -13.0683    1.0000 </r>
       <r>  -13.0508    1.0000 </r>
       <r>  -13.0461    1.0000 </r>
       <r>  -12.9820    1.0000 </r>
       <r>  -12.9675    1.0000 </r>
       <r>  -12.9629    1.0000 </r>
       <r>  -10.9667    1.0000 </r>
       <r>  -10.9460    1.0000 </r>
       <r>  -10.9420    1.0000 </r>
       <r>   -7.4082    1.0000 </r>
       <r>    0.4375    1.0000 </r>
       <r>    1.0434    1.0000 </r>
       <r>    1.1061    1.0000 </r>
       <r>    3.0791    0.0000 </r>
       <r>    3.4989    0.0000 </r>
       <r>    4.9126    0.0000 </r>
       <r>    5.1685    0.0000 </r>
      </set>
      <set comment="kpoint 29">
       <r>  -29.4924    1.0000 </r>
       <r>  -29.4924    1.0000 </r>
       <r>  -26.8502    1.0000 </r>
       <r>  -19.4901    1.0000 </r>
       <r>  -19.4900    1.0000 </r>
       <r>  -19.4900    1.0000 </r>
       <r>  -19.4846    1.0000 </r>
       <r>  -19.4845    1.0000 </r>
       <r>  -13.0719    1.0000 </r>
       <r>  -13.0472    1.0000 </r>
       <r>  -13.0143    1.0000 </r>
       <r>  -13.0143    1.0000 </r>
       <r>  -12.9658    1.0000 </r>
       <r>  -12.9646    1.0000 </r>
       <r>  -10.9562    1.0000 </r>
       <r>  -10.9562    1.0000 </r>
       <r>  -10.9422    1.0000 </r>
       <r>   -7.4057    1.0000 </r>
       <r>    0.6929    1.0000 </r>
       <r>    0.6929    1.0000 </r>
       <r>    0.9873    1.0000 </r>
       <r>    3.3271    0.0000 </r>
       <r>    4.3311    0.0000 </r>
       <r>    4.3311    0.0000 </r>
       <r>    4.8657    0.0000 </r>
      </set>
     </set>
    </set>
   </array>
  </eigenvalues>
  <separator name="orbital magnetization" >
   <v name="MAGDIPOLOUT">      0.00000000      0.00000000      0.00000000</v>
  </separator>
  <dos>
   <i name="efermi">      1.45436693 </i>
   <total>
    <array>
     <dimension dim="1">gridpoints</dimension>
     <dimension dim="2">spin</dimension>
     <field>energy</field>
     <field>total</field>
     <field>integrated</field>
     <set>
      <set comment="spin 1">
       <r>   -31.2500     0.0000     0.0000 </r>
       <r>   -31.1215     0.0000     0.0000 </r>
       <r>   -30.9930     0.0000     0.0000 </r>
       <r>   -30.8645     0.0000     0.0000 </r>
       <r>   -30.7360     0.0000     0.0000 </r>
       <r>   -30.6076     0.0000     0.0000 </r>
       <r>   -30.4791     0.0000     0.0000 </r>
       <r>   -30.3506     0.0000     0.0000 </r>
       <r>   -30.2221     0.0000     0.0000 </r>
       <r>   -30.0936     0.0000     0.0000 </r>
       <r>   -29.9651     0.0000     0.0000 </r>
       <r>   -29.8366     0.0000     0.0000 </r>
       <r>   -29.7081     0.0000     0.0000 </r>
       <r>   -29.5797     0.2155     0.0277 </r>
       <r>   -29.4512    27.1276     3.5133 </r>
       <r>   -29.3227     3.7883     4.0000 </r>
       <r>   -29.1942     0.0000     4.0000 </r>
       <r>   -29.0657     0.0000     4.0000 </r>
       <r>   -28.9372     0.0000     4.0000 </r>
       <r>   -28.8087     0.0000     4.0000 </r>
       <r>   -28.6802     0.0000     4.0000 </r>
       <r>   -28.5518     0.0000     4.0000 </r>
       <r>   -28.4233     0.0000     4.0000 </r>
       <r>   -28.2948     0.0000     4.0000 </r>
       <r>   -28.1663     0.0000     4.0000 </r>
       <r>   -28.0378     0.0000     4.0000 </r>
       <r>   -27.9093     0.0000     4.0000 </r>
       <r>   -27.7808     0.0000     4.0000 </r>
       <r>   -27.6523     0.0000     4.0000 </r>
       <r>   -27.5239     0.0000     4.0000 </r>
       <r>   -27.3954     0.0000     4.0000 </r>
       <r>   -27.2669     0.0000     4.0000 </r>
       <r>   -27.1384     0.0000     4.0000 </r>
       <r>   -27.0099     0.0000     4.0000 </r>
       <r>   -26.8814     2.9179     4.3749 </r>
       <r>   -26.7529    12.6009     5.9940 </r>
       <r>   -26.6244     0.0468     6.0000 </r>
       <r>   -26.4960     0.0000     6.0000 </r>
       <r>   -26.3675     0.0000     6.0000 </r>
       <r>   -26.2390     0.0000     6.0000 </r>
       <r>   -26.1105     0.0000     6.0000 </r>
       <r>   -25.9820     0.0000     6.0000 </r>
       <r>   -25.8535     0.0000     6.0000 </r>
       <r>   -25.7250     0.0000     6.0000 </r>
       <r>   -25.5965     0.0000     6.0000 </r>
       <r>   -25.4681     0.0000     6.0000 </r>
       <r>   -25.3396     0.0000     6.0000 </r>
       <r>   -25.2111     0.0000     6.0000 </r>
       <r>   -25.0826     0.0000     6.0000 </r>
       <r>   -24.9541     0.0000     6.0000 </r>
       <r>   -24.8256     0.0000     6.0000 </r>
       <r>   -24.6971     0.0000     6.0000 </r>
       <r>   -24.5686     0.0000     6.0000 </r>
       <r>   -24.4402     0.0000     6.0000 </r>
       <r>   -24.3117     0.0000     6.0000 </r>
       <r>   -24.1832     0.0000     6.0000 </r>
       <r>   -24.0547     0.0000     6.0000 </r>
       <r>   -23.9262     0.0000     6.0000 </r>
       <r>   -23.7977     0.0000     6.0000 </r>
       <r>   -23.6692     0.0000     6.0000 </r>
       <r>   -23.5407     0.0000     6.0000 </r>
       <r>   -23.4123     0.0000     6.0000 </r>
       <r>   -23.2838     0.0000     6.0000 </r>
       <r>   -23.1553     0.0000     6.0000 </r>
       <r>   -23.0268     0.0000     6.0000 </r>
       <r>   -22.8983     0.0000     6.0000 </r>
       <r>   -22.7698     0.0000     6.0000 </r>
       <r>   -22.6413     0.0000     6.0000 </r>
       <r>   -22.5128     0.0000     6.0000 </r>
       <r>   -22.3844     0.0000     6.0000 </r>
       <r>   -22.2559     0.0000     6.0000 </r>
       <r>   -22.1274     0.0000     6.0000 </r>
       <r>   -21.9989     0.0000     6.0000 </r>
       <r>   -21.8704     0.0000     6.0000 </r>
       <r>   -21.7419     0.0000     6.0000 </r>
       <r>   -21.6134     0.0000     6.0000 </r>
       <r>   -21.4849     0.0000     6.0000 </r>
       <r>   -21.3565     0.0000     6.0000 </r>
       <r>   -21.2280     0.0000     6.0000 </r>
       <r>   -21.0995     0.0000     6.0000 </r>
       <r>   -20.9710     0.0000     6.0000 </r>
       <r>   -20.8425     0.0000     6.0000 </r>
       <r>   -20.7140     0.0000     6.0000 </r>
       <r>   -20.5855     0.0000     6.0000 </r>
       <r>   -20.4570     0.0000     6.0000 </r>
       <r>   -20.3286     0.0000     6.0000 </r>
       <r>   -20.2001     0.0000     6.0000 </r>
       <r>   -20.0716     0.0000     6.0000 </r>
       <r>   -19.9431     0.0000     6.0000 </r>
       <r>   -19.8146     0.0000     6.0000 </r>
       <r>   -19.6861     0.0000     6.0000 </r>
       <r>   -19.5576     1.9177     6.2464 </r>
       <r>   -19.4291    72.1180    15.5127 </r>
       <r>   -19.3007     3.7929    16.0000 </r>
       <r>   -19.1722     0.0000    16.0000 </r>
       <r>   -19.0437     0.0000    16.0000 </r>
       <r>   -18.9152     0.0000    16.0000 </r>
       <r>   -18.7867     0.0000    16.0000 </r>
       <r>   -18.6582     0.0000    16.0000 </r>
       <r>   -18.5297     0.0000    16.0000 </r>
       <r>   -18.4012     0.0000    16.0000 </r>
       <r>   -18.2728     0.0000    16.0000 </r>
       <r>   -18.1443     0.0000    16.0000 </r>
       <r>   -18.0158     0.0000    16.0000 </r>
       <r>   -17.8873     0.0000    16.0000 </r>
       <r>   -17.7588     0.0000    16.0000 </r>
       <r>   -17.6303     0.0000    16.0000 </r>
       <r>   -17.5018     0.0000    16.0000 </r>
       <r>   -17.3733     0.0000    16.0000 </r>
       <r>   -17.2449     0.0000    16.0000 </r>
       <r>   -17.1164     0.0000    16.0000 </r>
       <r>   -16.9879     0.0000    16.0000 </r>
       <r>   -16.8594     0.0000    16.0000 </r>
       <r>   -16.7309     0.0000    16.0000 </r>
       <r>   -16.6024     0.0000    16.0000 </r>
       <r>   -16.4739     0.0000    16.0000 </r>
       <r>   -16.3454     0.0000    16.0000 </r>
       <r>   -16.2170     0.0000    16.0000 </r>
       <r>   -16.0885     0.0000    16.0000 </r>
       <r>   -15.9600     0.0000    16.0000 </r>
       <r>   -15.8315     0.0000    16.0000 </r>
       <r>   -15.7030     0.0000    16.0000 </r>
       <r>   -15.5745     0.0000    16.0000 </r>
       <r>   -15.4460     0.0000    16.0000 </r>
       <r>   -15.3175     0.0000    16.0000 </r>
       <r>   -15.1891     0.0000    16.0000 </r>
       <r>   -15.0606     0.0000    16.0000 </r>
       <r>   -14.9321     0.0000    16.0000 </r>
       <r>   -14.8036     0.0000    16.0000 </r>
       <r>   -14.6751     0.0000    16.0000 </r>
       <r>   -14.5466     0.0000    16.0000 </r>
       <r>   -14.4181     0.0000    16.0000 </r>
       <r>   -14.2896     0.0000    16.0000 </r>
       <r>   -14.1612     0.0000    16.0000 </r>
       <r>   -14.0327     0.0000    16.0000 </r>
       <r>   -13.9042     0.0000    16.0000 </r>
       <r>   -13.7757     0.0000    16.0000 </r>
       <r>   -13.6472     0.0000    16.0000 </r>
       <r>   -13.5187     0.0000    16.0000 </r>
       <r>   -13.3902     0.0000    16.0000 </r>
       <r>   -13.2617     0.0000    16.0000 </r>
       <r>   -13.1333     0.3126    16.0402 </r>
       <r>   -13.0048    51.5679    22.6660 </r>
       <r>   -12.8763    41.4275    27.9889 </r>
       <r>   -12.7478     0.0862    28.0000 </r>
       <r>   -12.6193     0.0000    28.0000 </r>
       <r>   -12.4908     0.0000    28.0000 </r>
       <r>   -12.3623     0.0000    28.0000 </r>
       <r>   -12.2338     0.0000    28.0000 </r>
       <r>   -12.1054     0.0000    28.0000 </r>
       <r>   -11.9769     0.0000    28.0000 </r>
       <r>   -11.8484     0.0000    28.0000 </r>
       <r>   -11.7199     0.0000    28.0000 </r>
       <r>   -11.5914     0.0000    28.0000 </r>
       <r>   -11.4629     0.0000    28.0000 </r>
       <r>   -11.3344     0.0000    28.0000 </r>
       <r>   -11.2059     0.0000    28.0000 </r>
       <r>   -11.0775     0.0125    28.0016 </r>
       <r>   -10.9490    24.9848    31.2118 </r>
       <r>   -10.8205    21.6940    33.9992 </r>
       <r>   -10.6920     0.0059    34.0000 </r>
       <r>   -10.5635     0.0000    34.0000 </r>
       <r>   -10.4350     0.0000    34.0000 </r>
       <r>   -10.3065     0.0000    34.0000 </r>
       <r>   -10.1780     0.0000    34.0000 </r>
       <r>   -10.0496     0.0000    34.0000 </r>
       <r>    -9.9211     0.0000    34.0000 </r>
       <r>    -9.7926     0.0000    34.0000 </r>
       <r>    -9.6641     0.0000    34.0000 </r>
       <r>    -9.5356     0.0000    34.0000 </r>
       <r>    -9.4071     0.0000    34.0000 </r>
       <r>    -9.2786     0.0000    34.0000 </r>
       <r>    -9.1501     0.0000    34.0000 </r>
       <r>    -9.0217     0.0000    34.0000 </r>
       <r>    -8.8932     0.0000    34.0000 </r>
       <r>    -8.7647     0.0000    34.0000 </r>
       <r>    -8.6362     0.0000    34.0000 </r>
       <r>    -8.5077     0.0000    34.0000 </r>
       <r>    -8.3792     0.0000    34.0000 </r>
       <r>    -8.2507     0.0000    34.0000 </r>
       <r>    -8.1222     0.0000    34.0000 </r>
       <r>    -7.9938     0.0000    34.0000 </r>
       <r>    -7.8653     0.0000    34.0000 </r>
       <r>    -7.7368     0.0000    34.0000 </r>
       <r>    -7.6083     0.0003    34.0000 </r>
       <r>    -7.4798     1.4208    34.1826 </r>
       <r>    -7.3513    13.6638    35.9382 </r>
       <r>    -7.2228     0.4808    36.0000 </r>
       <r>    -7.0943     0.0000    36.0000 </r>
       <r>    -6.9659     0.0000    36.0000 </r>
       <r>    -6.8374     0.0000    36.0000 </r>
       <r>    -6.7089     0.0000    36.0000 </r>
       <r>    -6.5804     0.0000    36.0000 </r>
       <r>    -6.4519     0.0000    36.0000 </r>
       <r>    -6.3234     0.0000    36.0000 </r>
       <r>    -6.1949     0.0000    36.0000 </r>
       <r>    -6.0664     0.0000    36.0000 </r>
       <r>    -5.9380     0.0000    36.0000 </r>
       <r>    -5.8095     0.0000    36.0000 </r>
       <r>    -5.6810     0.0000    36.0000 </r>
       <r>    -5.5525     0.0000    36.0000 </r>
       <r>    -5.4240     0.0000    36.0000 </r>
       <r>    -5.2955     0.0000    36.0000 </r>
       <r>    -5.1670     0.0000    36.0000 </r>
       <r>    -5.0385     0.0000    36.0000 </r>
       <r>    -4.9101     0.0000    36.0000 </r>
       <r>    -4.7816     0.0000    36.0000 </r>
       <r>    -4.6531     0.0000    36.0000 </r>
       <r>    -4.5246     0.0000    36.0000 </r>
       <r>    -4.3961     0.0000    36.0000 </r>
       <r>    -4.2676     0.0000    36.0000 </r>
       <r>    -4.1391     0.0000    36.0000 </r>
       <r>    -4.0106     0.0000    36.0000 </r>
       <r>    -3.8822     0.0000    36.0000 </r>
       <r>    -3.7537     0.0000    36.0000 </r>
       <r>    -3.6252     0.0000    36.0000 </r>
       <r>    -3.4967     0.0000    36.0000 </r>
       <r>    -3.3682     0.0000    36.0000 </r>
       <r>    -3.2397     0.0000    36.0000 </r>
       <r>    -3.1112     0.0000    36.0000 </r>
       <r>    -2.9827     0.0000    36.0000 </r>
       <r>    -2.8543     0.0000    36.0000 </r>
       <r>    -2.7258     0.0000    36.0000 </r>
       <r>    -2.5973     0.0000    36.0000 </r>
       <r>    -2.4688     0.0000    36.0000 </r>
       <r>    -2.3403     0.0000    36.0000 </r>
       <r>    -2.2118     0.0000    36.0000 </r>
       <r>    -2.0833     0.0000    36.0000 </r>
       <r>    -1.9548     0.0000    36.0000 </r>
       <r>    -1.8264     0.0000    36.0000 </r>
       <r>    -1.6979     0.0000    36.0000 </r>
       <r>    -1.5694     0.0000    36.0000 </r>
       <r>    -1.4409     0.0000    36.0000 </r>
       <r>    -1.3124     0.0000    36.0000 </r>
       <r>    -1.1839     0.0000    36.0000 </r>
       <r>    -1.0554     0.0000    36.0000 </r>
       <r>    -0.9269     0.0000    36.0000 </r>
       <r>    -0.7985     0.0000    36.0000 </r>
       <r>    -0.6700     0.0000    36.0000 </r>
       <r>    -0.5415     0.0000    36.0000 </r>
       <r>    -0.4130     0.0000    36.0000 </r>
       <r>    -0.2845     0.0000    36.0000 </r>
       <r>    -0.1560     0.0000    36.0000 </r>
       <r>    -0.0275     0.0001    36.0000 </r>
       <r>     0.1010     0.1082    36.0139 </r>
       <r>     0.2294     1.8156    36.2472 </r>
       <r>     0.3579     6.7011    37.1082 </r>
       <r>     0.4864     4.3391    37.6657 </r>
       <r>     0.6149     1.9494    37.9162 </r>
       <r>     0.7434     0.9234    38.0348 </r>
       <r>     0.8719     3.2237    38.4490 </r>
       <r>     1.0004     2.6911    38.7948 </r>
       <r>     1.1289     6.5502    39.6364 </r>
       <r>     1.2573    13.6438    41.3895 </r>
       <r>     1.3858     4.6044    41.9811 </r>
       <r>     1.5143     0.1638    42.0021 </r>
       <r>     1.6428     0.0137    42.0039 </r>
       <r>     1.7713     0.0000    42.0039 </r>
       <r>     1.8998     0.0000    42.0039 </r>
       <r>     2.0283     0.0000    42.0039 </r>
       <r>     2.1568     0.0435    42.0095 </r>
       <r>     2.2852     0.3167    42.0502 </r>
       <r>     2.4137     0.0655    42.0586 </r>
       <r>     2.5422     0.0001    42.0586 </r>
       <r>     2.6707     0.2018    42.0845 </r>
       <r>     2.7992     0.3866    42.1342 </r>
       <r>     2.9277     0.8581    42.2445 </r>
       <r>     3.0562     1.0607    42.3807 </r>
       <r>     3.1847     0.7663    42.4792 </r>
       <r>     3.3131     4.0341    42.9975 </r>
       <r>     3.4416     3.2508    43.4152 </r>
       <r>     3.5701     2.7794    43.7723 </r>
       <r>     3.6986     3.7866    44.2589 </r>
       <r>     3.8271     1.1365    44.4049 </r>
       <r>     3.9556     2.2237    44.6906 </r>
       <r>     4.0841     3.6869    45.1643 </r>
       <r>     4.2126     3.6303    45.6308 </r>
       <r>     4.3410     5.1155    46.2881 </r>
       <r>     4.4695     6.5982    47.1359 </r>
       <r>     4.5980     3.1354    47.5387 </r>
       <r>     4.7265     4.0073    48.0536 </r>
       <r>     4.8550     5.8501    48.8053 </r>
       <r>     4.9835     6.9187    49.6942 </r>
       <r>     5.1120     1.0215    49.8255 </r>
       <r>     5.2405     1.2048    49.9803 </r>
       <r>     5.3689     0.0623    49.9883 </r>
       <r>     5.4974     0.0085    49.9894 </r>
       <r>     5.6259     0.0818    49.9999 </r>
       <r>     5.7544     0.0009    50.0000 </r>
       <r>     5.8829     0.0000    50.0000 </r>
       <r>     6.0114     0.0000    50.0000 </r>
       <r>     6.1399     0.0000    50.0000 </r>
       <r>     6.2684     0.0000    50.0000 </r>
       <r>     6.3968     0.0000    50.0000 </r>
       <r>     6.5253     0.0000    50.0000 </r>
       <r>     6.6538     0.0000    50.0000 </r>
       <r>     6.7823     0.0000    50.0000 </r>
       <r>     6.9108     0.0000    50.0000 </r>
       <r>     7.0393     0.0000    50.0000 </r>
       <r>     7.1678     0.0000    50.0000 </r>
       <r>     7.2963     0.0000    50.0000 </r>
      </set>
     </set>
    </array>
   </total>
  </dos>
 </calculation>
 <structure name="finalpos" >
  <crystal>
   <varray name="basis" >
    <v>       0.00000000       4.40848546       4.40848546 </v>
    <v>       4.40848546       0.00000000       4.40848546 </v>
    <v>       4.40848546       4.40848546       0.00000000 </v>
   </varray>
   <i name="volume">    171.35557349 </i>
   <varray name="rec_basis" >
    <v>      -0.11341764       0.11341764       0.11341764 </v>
    <v>       0.11341764      -0.11341764       0.11341764 </v>
    <v>       0.11341764       0.11341764      -0.11341764 </v>
   </varray>
  </crystal>
  <varray name="positions" >
   <v>       0.24999994       0.24999994       0.24999994 </v>
   <v>       0.00000000       0.00000000       0.00000000 </v>
   <v>       0.49999989       0.49999989       0.49999989 </v>
   <v>       0.74999983       0.74999983       0.74999983 </v>
  </varray>
 </structure>
</modeling>
