unknown system                          
           1
     0.000000    4.408485    4.408485
     4.408485    0.000000    4.408485
     4.408485    4.408485    0.000000
   Bi   K    Rb
   1   2   1
Direct configuration=     1
   0.24999994  0.24999994  0.24999994
   0.00000000  0.00000000  0.00000000
   0.49999989  0.49999989  0.49999989
   0.74999983  0.74999983  0.74999983
