   4   4   0   0
  0.3196058E+02  0.5654531E-09  0.5654531E-09  0.5654531E-09  0.5000000E-15
  1.000000000000000E-004
  CAR 
 unknown system                          
      8.72092128    -27.24136982  301      2.18792864      1.00000000
    -27.241  0.0000E+00  0.0000E+00
    -27.121  0.0000E+00  0.0000E+00
    -27.002  0.0000E+00  0.0000E+00
    -26.882  0.0000E+00  0.0000E+00
    -26.762  0.0000E+00  0.0000E+00
    -26.642  0.0000E+00  0.0000E+00
    -26.522  0.0000E+00  0.0000E+00
    -26.402  0.0000E+00  0.0000E+00
    -26.282  0.0000E+00  0.0000E+00
    -26.163  0.0000E+00  0.0000E+00
    -26.043  0.0000E+00  0.0000E+00
    -25.923  0.0000E+00  0.0000E+00
    -25.803  0.2295E-08  0.2751E-09
    -25.683  0.2529E-02  0.3031E-03
    -25.563  0.1459E+00  0.1779E-01
    -25.443  0.1841E-01  0.2000E-01
    -25.323  0.3278E-06  0.2000E-01
    -25.204  0.0000E+00  0.2000E-01
    -25.084  0.0000E+00  0.2000E-01
    -24.964  0.0000E+00  0.2000E-01
    -24.844  0.0000E+00  0.2000E-01
    -24.724  0.0000E+00  0.2000E-01
    -24.604  0.0000E+00  0.2000E-01
    -24.484  0.0000E+00  0.2000E-01
    -24.364  0.0000E+00  0.2000E-01
    -24.245  0.0000E+00  0.2000E-01
    -24.125  0.0000E+00  0.2000E-01
    -24.005  0.0000E+00  0.2000E-01
    -23.885  0.0000E+00  0.2000E-01
    -23.765  0.0000E+00  0.2000E-01
    -23.645  0.0000E+00  0.2000E-01
    -23.525  0.0000E+00  0.2000E-01
    -23.405  0.0000E+00  0.2000E-01
    -23.286  0.0000E+00  0.2000E-01
    -23.166  0.0000E+00  0.2000E-01
    -23.046  0.0000E+00  0.2000E-01
    -22.926  0.0000E+00  0.2000E-01
    -22.806  0.0000E+00  0.2000E-01
    -22.686  0.0000E+00  0.2000E-01
    -22.566  0.8272E-07  0.2000E-01
    -22.446  0.3183E-01  0.2382E-01
    -22.327  0.9054E+00  0.1324E+00
    -22.207  0.6377E-01  0.1400E+00
    -22.087  0.4699E-06  0.1400E+00
    -21.967  0.0000E+00  0.1400E+00
    -21.847  0.0000E+00  0.1400E+00
    -21.727  0.0000E+00  0.1400E+00
    -21.607  0.0000E+00  0.1400E+00
    -21.487  0.0000E+00  0.1400E+00
    -21.368  0.0000E+00  0.1400E+00
    -21.248  0.0000E+00  0.1400E+00
    -21.128  0.0000E+00  0.1400E+00
    -21.008  0.0000E+00  0.1400E+00
    -20.888  0.0000E+00  0.1400E+00
    -20.768  0.0000E+00  0.1400E+00
    -20.648  0.0000E+00  0.1400E+00
    -20.528  0.0000E+00  0.1400E+00
    -20.409  0.0000E+00  0.1400E+00
    -20.289  0.0000E+00  0.1400E+00
    -20.169  0.0000E+00  0.1400E+00
    -20.049  0.0000E+00  0.1400E+00
    -19.929  0.0000E+00  0.1400E+00
    -19.809  0.0000E+00  0.1400E+00
    -19.689  0.0000E+00  0.1400E+00
    -19.569  0.0000E+00  0.1400E+00
    -19.450  0.0000E+00  0.1400E+00
    -19.330  0.2004E-09  0.1400E+00
    -19.210  0.1909E-02  0.1402E+00
    -19.090  0.5907E+00  0.2110E+00
    -18.970  0.2416E+00  0.2400E+00
    -18.850  0.3338E-04  0.2400E+00
    -18.730  0.9301E-13  0.2400E+00
    -18.610  0.0000E+00  0.2400E+00
    -18.491  0.0000E+00  0.2400E+00
    -18.371  0.0000E+00  0.2400E+00
    -18.251  0.0000E+00  0.2400E+00
    -18.131  0.0000E+00  0.2400E+00
    -18.011  0.0000E+00  0.2400E+00
    -17.891  0.0000E+00  0.2400E+00
    -17.771  0.0000E+00  0.2400E+00
    -17.651  0.0000E+00  0.2400E+00
    -17.532  0.0000E+00  0.2400E+00
    -17.412  0.0000E+00  0.2400E+00
    -17.292  0.0000E+00  0.2400E+00
    -17.172  0.0000E+00  0.2400E+00
    -17.052  0.0000E+00  0.2400E+00
    -16.932  0.0000E+00  0.2400E+00
    -16.812  0.0000E+00  0.2400E+00
    -16.692  0.0000E+00  0.2400E+00
    -16.573  0.0000E+00  0.2400E+00
    -16.453  0.0000E+00  0.2400E+00
    -16.333  0.0000E+00  0.2400E+00
    -16.213  0.0000E+00  0.2400E+00
    -16.093  0.0000E+00  0.2400E+00
    -15.973  0.0000E+00  0.2400E+00
    -15.853  0.0000E+00  0.2400E+00
    -15.733  0.0000E+00  0.2400E+00
    -15.614  0.0000E+00  0.2400E+00
    -15.494  0.0000E+00  0.2400E+00
    -15.374  0.0000E+00  0.2400E+00
    -15.254  0.0000E+00  0.2400E+00
    -15.134  0.0000E+00  0.2400E+00
    -15.014  0.0000E+00  0.2400E+00
    -14.894  0.0000E+00  0.2400E+00
    -14.774  0.0000E+00  0.2400E+00
    -14.655  0.0000E+00  0.2400E+00
    -14.535  0.0000E+00  0.2400E+00
    -14.415  0.0000E+00  0.2400E+00
    -14.295  0.0000E+00  0.2400E+00
    -14.175  0.0000E+00  0.2400E+00
    -14.055  0.0000E+00  0.2400E+00
    -13.935  0.0000E+00  0.2400E+00
    -13.815  0.0000E+00  0.2400E+00
    -13.696  0.0000E+00  0.2400E+00
    -13.576  0.0000E+00  0.2400E+00
    -13.456  0.0000E+00  0.2400E+00
    -13.336  0.0000E+00  0.2400E+00
    -13.216  0.0000E+00  0.2400E+00
    -13.096  0.0000E+00  0.2400E+00
    -12.976  0.0000E+00  0.2400E+00
    -12.856  0.0000E+00  0.2400E+00
    -12.737  0.0000E+00  0.2400E+00
    -12.617  0.0000E+00  0.2400E+00
    -12.497  0.0000E+00  0.2400E+00
    -12.377  0.0000E+00  0.2400E+00
    -12.257  0.0000E+00  0.2400E+00
    -12.137  0.0000E+00  0.2400E+00
    -12.017  0.0000E+00  0.2400E+00
    -11.897  0.0000E+00  0.2400E+00
    -11.778  0.0000E+00  0.2400E+00
    -11.658  0.0000E+00  0.2400E+00
    -11.538  0.0000E+00  0.2400E+00
    -11.418  0.0000E+00  0.2400E+00
    -11.298  0.0000E+00  0.2400E+00
    -11.178  0.0000E+00  0.2400E+00
    -11.058  0.0000E+00  0.2400E+00
    -10.938  0.0000E+00  0.2400E+00
    -10.819  0.0000E+00  0.2400E+00
    -10.699  0.0000E+00  0.2400E+00
    -10.579  0.0000E+00  0.2400E+00
    -10.459  0.0000E+00  0.2400E+00
    -10.339  0.0000E+00  0.2400E+00
    -10.219  0.0000E+00  0.2400E+00
    -10.099  0.7959E-17  0.2400E+00
     -9.979  0.4194E-07  0.2400E+00
     -9.860  0.7343E-02  0.2409E+00
     -9.740  0.3857E+00  0.2871E+00
     -9.620  0.1074E+00  0.3000E+00
     -9.500  0.1599E-04  0.3000E+00
     -9.380  0.6432E-13  0.3000E+00
     -9.260  0.0000E+00  0.3000E+00
     -9.140  0.0000E+00  0.3000E+00
     -9.020  0.0000E+00  0.3000E+00
     -8.901  0.0000E+00  0.3000E+00
     -8.781  0.0000E+00  0.3000E+00
     -8.661  0.0000E+00  0.3000E+00
     -8.541  0.0000E+00  0.3000E+00
     -8.421  0.0000E+00  0.3000E+00
     -8.301  0.0000E+00  0.3000E+00
     -8.181  0.0000E+00  0.3000E+00
     -8.061  0.0000E+00  0.3000E+00
     -7.942  0.0000E+00  0.3000E+00
     -7.822  0.0000E+00  0.3000E+00
     -7.702  0.0000E+00  0.3000E+00
     -7.582  0.0000E+00  0.3000E+00
     -7.462  0.6191E-10  0.3000E+00
     -7.342  0.3203E-04  0.3000E+00
     -7.222  0.6882E-02  0.3008E+00
     -7.102  0.8333E-01  0.3108E+00
     -6.983  0.7642E-01  0.3200E+00
     -6.863  0.1794E-03  0.3200E+00
     -6.743  0.2569E-10  0.3200E+00
     -6.623  0.0000E+00  0.3200E+00
     -6.503  0.0000E+00  0.3200E+00
     -6.383  0.0000E+00  0.3200E+00
     -6.263  0.0000E+00  0.3200E+00
     -6.143  0.0000E+00  0.3200E+00
     -6.024  0.0000E+00  0.3200E+00
     -5.904  0.0000E+00  0.3200E+00
     -5.784  0.0000E+00  0.3200E+00
     -5.664  0.0000E+00  0.3200E+00
     -5.544  0.0000E+00  0.3200E+00
     -5.424  0.0000E+00  0.3200E+00
     -5.304  0.0000E+00  0.3200E+00
     -5.184  0.0000E+00  0.3200E+00
     -5.065  0.0000E+00  0.3200E+00
     -4.945  0.0000E+00  0.3200E+00
     -4.825  0.0000E+00  0.3200E+00
     -4.705  0.0000E+00  0.3200E+00
     -4.585  0.0000E+00  0.3200E+00
     -4.465  0.0000E+00  0.3200E+00
     -4.345  0.0000E+00  0.3200E+00
     -4.226  0.0000E+00  0.3200E+00
     -4.106  0.0000E+00  0.3200E+00
     -3.986  0.0000E+00  0.3200E+00
     -3.866  0.0000E+00  0.3200E+00
     -3.746  0.0000E+00  0.3200E+00
     -3.626  0.0000E+00  0.3200E+00
     -3.506  0.0000E+00  0.3200E+00
     -3.386  0.0000E+00  0.3200E+00
     -3.267  0.0000E+00  0.3200E+00
     -3.147  0.0000E+00  0.3200E+00
     -3.027  0.0000E+00  0.3200E+00
     -2.907  0.0000E+00  0.3200E+00
     -2.787  0.0000E+00  0.3200E+00
     -2.667  0.0000E+00  0.3200E+00
     -2.547  0.0000E+00  0.3200E+00
     -2.427  0.0000E+00  0.3200E+00
     -2.308  0.0000E+00  0.3200E+00
     -2.188  0.0000E+00  0.3200E+00
     -2.068  0.0000E+00  0.3200E+00
     -1.948  0.0000E+00  0.3200E+00
     -1.828  0.0000E+00  0.3200E+00
     -1.708  0.0000E+00  0.3200E+00
     -1.588  0.0000E+00  0.3200E+00
     -1.468  0.0000E+00  0.3200E+00
     -1.349  0.0000E+00  0.3200E+00
     -1.229  0.0000E+00  0.3200E+00
     -1.109  0.0000E+00  0.3200E+00
     -0.989  0.0000E+00  0.3200E+00
     -0.869  0.0000E+00  0.3200E+00
     -0.749  0.0000E+00  0.3200E+00
     -0.629  0.0000E+00  0.3200E+00
     -0.509  0.0000E+00  0.3200E+00
     -0.390  0.0000E+00  0.3200E+00
     -0.270  0.1299E-10  0.3200E+00
     -0.150  0.1713E-04  0.3200E+00
     -0.030  0.1265E-02  0.3202E+00
      0.090  0.1261E-01  0.3217E+00
      0.210  0.9653E-02  0.3228E+00
      0.330  0.4034E-01  0.3277E+00
      0.450  0.4181E-01  0.3327E+00
      0.569  0.3562E-01  0.3369E+00
      0.689  0.1191E-01  0.3384E+00
      0.809  0.1052E-01  0.3396E+00
      0.929  0.2059E-01  0.3421E+00
      1.049  0.1546E-01  0.3440E+00
      1.169  0.2073E-01  0.3464E+00
      1.289  0.3511E-01  0.3506E+00
      1.409  0.3909E-01  0.3553E+00
      1.528  0.5465E-01  0.3619E+00
      1.648  0.7791E-01  0.3712E+00
      1.768  0.3217E-01  0.3751E+00
      1.888  0.2557E-01  0.3781E+00
      2.008  0.7265E-02  0.3790E+00
      2.128  0.7499E-02  0.3799E+00
      2.248  0.1053E-02  0.3800E+00
      2.368  0.1642E-04  0.3800E+00
      2.487  0.1699E-10  0.3800E+00
      2.607  0.0000E+00  0.3800E+00
      2.727  0.1416E-09  0.3800E+00
      2.847  0.7132E-04  0.3800E+00
      2.967  0.2354E-02  0.3803E+00
      3.087  0.1524E-02  0.3805E+00
      3.207  0.6819E-03  0.3806E+00
      3.327  0.1351E-02  0.3808E+00
      3.446  0.7675E-02  0.3817E+00
      3.566  0.1651E-01  0.3837E+00
      3.686  0.5116E-02  0.3843E+00
      3.806  0.2461E-01  0.3872E+00
      3.926  0.2960E-01  0.3908E+00
      4.046  0.1938E-01  0.3931E+00
      4.166  0.1341E-01  0.3947E+00
      4.286  0.5131E-01  0.4008E+00
      4.405  0.2794E-01  0.4042E+00
      4.525  0.5402E-02  0.4048E+00
      4.645  0.1015E-01  0.4061E+00
      4.765  0.1126E-01  0.4074E+00
      4.885  0.1213E-01  0.4089E+00
      5.005  0.3830E-01  0.4135E+00
      5.125  0.4173E-01  0.4185E+00
      5.245  0.2491E-01  0.4214E+00
      5.364  0.3064E-01  0.4251E+00
      5.484  0.4641E-01  0.4307E+00
      5.604  0.1451E-01  0.4324E+00
      5.724  0.3122E-01  0.4362E+00
      5.844  0.1627E-01  0.4381E+00
      5.964  0.2842E-01  0.4415E+00
      6.084  0.3203E-01  0.4454E+00
      6.204  0.4800E-01  0.4511E+00
      6.323  0.2740E-01  0.4544E+00
      6.443  0.1851E-01  0.4566E+00
      6.563  0.8518E-02  0.4576E+00
      6.683  0.1830E-03  0.4577E+00
      6.803  0.2432E-02  0.4580E+00
      6.923  0.1071E-01  0.4592E+00
      7.043  0.5499E-02  0.4599E+00
      7.163  0.8680E-03  0.4600E+00
      7.282  0.1513E-04  0.4600E+00
      7.402  0.1411E-10  0.4600E+00
      7.522  0.0000E+00  0.4600E+00
      7.642  0.0000E+00  0.4600E+00
      7.762  0.0000E+00  0.4600E+00
      7.882  0.0000E+00  0.4600E+00
      8.002  0.0000E+00  0.4600E+00
      8.122  0.0000E+00  0.4600E+00
      8.241  0.0000E+00  0.4600E+00
      8.361  0.0000E+00  0.4600E+00
      8.481  0.0000E+00  0.4600E+00
      8.601  0.0000E+00  0.4600E+00
      8.721  0.0000E+00  0.4600E+00
