    4    4  100    1
  0.3196058E+02  0.5654531E-09  0.5654531E-09  0.5654531E-09  0.5000000E-15
  1.000000000000000E-004
  CAR 
 unknown system                          
     38     29     23
 
  0.0000000E+00  0.0000000E+00  0.0000000E+00  0.1953125E-02
    1      -25.606720   1.000000
    2      -22.384096   1.000000
    3      -22.384089   1.000000
    4      -22.384089   1.000000
    5      -22.377278   1.000000
    6      -22.377271   1.000000
    7      -22.377271   1.000000
    8      -19.110054   1.000000
    9      -19.110054   1.000000
   10      -19.110053   1.000000
   11      -19.108802   1.000000
   12      -19.108802   1.000000
   13       -9.750692   1.000000
   14       -9.750688   1.000000
   15       -9.750688   1.000000
   16       -7.282171   1.000000
   17        2.011007   1.000000
   18        2.172574   0.667964
   19        2.172574   0.667964
   20        2.172585   0.667850
   21        4.539898   0.000000
   22        4.539898   0.000000
   23        4.539899   0.000000
 
  0.1250000E+00  0.0000000E+00  0.0000000E+00  0.1562500E-01
    1      -25.606672   1.000000
    2      -22.383827   1.000000
    3      -22.383821   1.000000
    4      -22.383807   1.000000
    5      -22.377542   1.000000
    6      -22.377536   1.000000
    7      -22.377456   1.000000
    8      -19.110110   1.000000
    9      -19.110018   1.000000
   10      -19.110017   1.000000
   11      -19.108798   1.000000
   12      -19.108798   1.000000
   13       -9.761694   1.000000
   14       -9.750925   1.000000
   15       -9.750921   1.000000
   16       -7.250605   1.000000
   17        1.239997   1.000000
   18        2.064298   0.999765
   19        2.064308   0.999764
   20        2.915003   0.000000
   21        4.635627   0.000000
   22        4.698890   0.000000
   23        4.698891   0.000000
 
  0.2500000E+00  0.0000000E+00  0.0000000E+00  0.1562500E-01
    1      -25.606558   1.000000
    2      -22.383102   1.000000
    3      -22.383095   1.000000
    4      -22.383028   1.000000
    5      -22.378280   1.000000
    6      -22.378274   1.000000
    7      -22.378025   1.000000
    8      -19.110250   1.000000
    9      -19.109956   1.000000
   10      -19.109955   1.000000
   11      -19.108790   1.000000
   12      -19.108790   1.000000
   13       -9.787237   1.000000
   14       -9.751510   1.000000
   15       -9.751506   1.000000
   16       -7.174545   1.000000
   17        0.544965   1.000000
   18        1.844542   1.000000
   19        1.844552   1.000000
   20        3.367085   0.000000
   21        5.090683   0.000000
   22        5.090688   0.000000
   23        5.239693   0.000000
 
  0.3750000E+00  0.0000000E+00  0.0000000E+00  0.1562500E-01
    1      -25.606443   1.000000
    2      -22.382011   1.000000
    3      -22.382005   1.000000
    4      -22.381864   1.000000
    5      -22.379394   1.000000
    6      -22.379388   1.000000
    7      -22.379000   1.000000
    8      -19.110409   1.000000
    9      -19.109912   1.000000
   10      -19.109911   1.000000
   11      -19.108794   1.000000
   12      -19.108794   1.000000
   13       -9.811437   1.000000
   14       -9.752093   1.000000
   15       -9.752089   1.000000
   16       -7.098503   1.000000
   17        0.088336   1.000000
   18        1.662926   1.000000
   19        1.662937   1.000000
   20        3.534516   0.000000
   21        5.597767   0.000000
   22        5.597776   0.000000
   23        6.131930   0.000000
 
  0.5000000E+00  0.0000000E+00  0.0000000E+00  0.7812500E-02
    1      -25.606397   1.000000
    2      -22.380927   1.000000
    3      -22.380878   1.000000
    4      -22.380872   1.000000
    5      -22.380532   1.000000
    6      -22.380526   1.000000
    7      -22.379846   1.000000
    8      -19.110468   1.000000
    9      -19.109887   1.000000
   10      -19.109886   1.000000
   11      -19.108785   1.000000
   12      -19.108785   1.000000
   13       -9.821095   1.000000
   14       -9.752333   1.000000
   15       -9.752329   1.000000
   16       -7.066941   1.000000
   17       -0.071219   1.000000
   18        1.595471   1.000000
   19        1.595481   1.000000
   20        3.600502   0.000000
   21        5.969183   0.000000
   22        5.969199   0.000000
   23        6.192714   0.000000
 
  0.1250000E+00  0.1250000E+00  0.0000000E+00  0.1171875E-01
    1      -25.606658   1.000000
    2      -22.384189   1.000000
    3      -22.384185   1.000000
    4      -22.382859   1.000000
    5      -22.378366   1.000000
    6      -22.377186   1.000000
    7      -22.377181   1.000000
    8      -19.110163   1.000000
    9      -19.109990   1.000000
   10      -19.109989   1.000000
   11      -19.108840   1.000000
   12      -19.108742   1.000000
   13       -9.761463   1.000000
   14       -9.752578   1.000000
   15       -9.752575   1.000000
   16       -7.242610   1.000000
   17        1.156536   1.000000
   18        2.018030   0.999999
   19        2.018036   0.999999
   20        3.069622   0.000000
   21        4.242422   0.000000
   22        4.946683   0.000000
   23        4.946684   0.000000
 
  0.2500000E+00  0.1250000E+00  0.0000000E+00  0.4687500E-01
    1      -25.606571   1.000000
    2      -22.384036   1.000000
    3      -22.384009   1.000000
    4      -22.381571   1.000000
    5      -22.379541   1.000000
    6      -22.377364   1.000000
    7      -22.377316   1.000000
    8      -19.110291   1.000000
    9      -19.109954   1.000000
   10      -19.109933   1.000000
   11      -19.108848   1.000000
   12      -19.108713   1.000000
   13       -9.779151   1.000000
   14       -9.754179   1.000000
   15       -9.753136   1.000000
   16       -7.187624   1.000000
   17        0.678291   1.000000
   18        1.802053   1.000000
   19        1.847545   1.000000
   20        3.530076   0.000000
   21        4.272680   0.000000
   22        5.378780   0.000000
   23        5.414035   0.000000
 
  0.3750000E+00  0.1250000E+00  0.0000000E+00  0.4687500E-01
    1      -25.606461   1.000000
    2      -22.383364   1.000000
    3      -22.383282   1.000000
    4      -22.380932   1.000000
    5      -22.380115   1.000000
    6      -22.378050   1.000000
    7      -22.377931   1.000000
    8      -19.110387   1.000000
    9      -19.109946   1.000000
   10      -19.109875   1.000000
   11      -19.108832   1.000000
   12      -19.108711   1.000000
   13       -9.801199   1.000000
   14       -9.754776   1.000000
   15       -9.754442   1.000000
   16       -7.118158   1.000000
   17        0.259340   1.000000
   18        1.543925   1.000000
   19        1.674846   1.000000
   20        3.743003   0.000000
   21        4.881038   0.000000
   22        5.830734   0.000000
   23        5.905425   0.000000
 
  0.5000000E+00  0.1250000E+00  0.0000000E+00  0.4687500E-01
    1      -25.606393   1.000000
    2      -22.382567   1.000000
    3      -22.382290   1.000000
    4      -22.381833   1.000000
    5      -22.379133   1.000000
    6      -22.378990   1.000000
    7      -22.378751   1.000000
    8      -19.110422   1.000000
    9      -19.109952   1.000000
   10      -19.109855   1.000000
   11      -19.108780   1.000000
   12      -19.108752   1.000000
   13       -9.814154   1.000000
   14       -9.756571   1.000000
   15       -9.754035   1.000000
   16       -7.074687   1.000000
   17        0.045172   1.000000
   18        1.392789   1.000000
   19        1.583836   1.000000
   20        3.891855   0.000000
   21        5.290911   0.000000
   22        6.109048   0.000000
   23        6.186469   0.000000
 
 -0.3750000E+00  0.1250000E+00  0.0000000E+00  0.4687500E-01
    1      -25.606407   1.000000
    2      -22.383498   1.000000
    3      -22.380980   1.000000
    4      -22.380801   1.000000
    5      -22.380430   1.000000
    6      -22.380148   1.000000
    7      -22.377728   1.000000
    8      -19.110390   1.000000
    9      -19.109960   1.000000
   10      -19.109873   1.000000
   11      -19.108807   1.000000
   12      -19.108725   1.000000
   13       -9.811585   1.000000
   14       -9.758085   1.000000
   15       -9.752380   1.000000
   16       -7.082523   1.000000
   17        0.086504   1.000000
   18        1.391606   1.000000
   19        1.609868   1.000000
   20        3.923823   0.000000
   21        5.390374   0.000000
   22        5.672155   0.000000
   23        6.175281   0.000000
 
 -0.2500000E+00  0.1250000E+00  0.0000000E+00  0.4687500E-01
    1      -25.606494   1.000000
    2      -22.384162   1.000000
    3      -22.381804   1.000000
    4      -22.381758   1.000000
    5      -22.379579   1.000000
    6      -22.379266   1.000000
    7      -22.377149   1.000000
    8      -19.110303   1.000000
    9      -19.109957   1.000000
   10      -19.109931   1.000000
   11      -19.108839   1.000000
   12      -19.108714   1.000000
   13       -9.795170   1.000000
   14       -9.757680   1.000000
   15       -9.750781   1.000000
   16       -7.137156   1.000000
   17        0.371113   1.000000
   18        1.546481   1.000000
   19        1.747085   1.000000
   20        3.800051   0.000000
   21        5.066703   0.000000
   22        5.140626   0.000000
   23        5.680566   0.000000
 
 -0.1250000E+00  0.1250000E+00  0.0000000E+00  0.2343750E-01
    1      -25.606605   1.000000
    2      -22.384283   1.000000
    3      -22.382983   1.000000
    4      -22.382965   1.000000
    5      -22.378381   1.000000
    6      -22.378188   1.000000
    7      -22.377084   1.000000
    8      -19.110202   1.000000
    9      -19.109991   1.000000
   10      -19.109963   1.000000
   11      -19.108831   1.000000
   12      -19.108741   1.000000
   13       -9.774373   1.000000
   14       -9.754754   1.000000
   15       -9.750180   1.000000
   16       -7.206782   1.000000
   17        0.820552   1.000000
   18        1.828555   1.000000
   19        1.938800   1.000000
   20        3.406594   0.000000
   21        4.595736   0.000000
   22        4.778707   0.000000
   23        5.280260   0.000000
 
  0.2500000E+00  0.2500000E+00  0.0000000E+00  0.1171875E-01
    1      -25.606521   1.000000
    2      -22.384468   1.000000
    3      -22.384464   1.000000
    4      -22.381000   1.000000
    5      -22.379919   1.000000
    6      -22.376958   1.000000
    7      -22.376954   1.000000
    8      -19.110473   1.000000
    9      -19.109868   1.000000
   10      -19.109868   1.000000
   11      -19.108865   1.000000
   12      -19.108643   1.000000
   13       -9.780167   1.000000
   14       -9.757216   1.000000
   15       -9.757213   1.000000
   16       -7.168773   1.000000
   17        0.576651   1.000000
   18        1.758243   1.000000
   19        1.758249   1.000000
   20        3.744866   0.000000
   21        3.753151   0.000000
   22        5.924341   0.000000
   23        5.924344   0.000000
 
  0.3750000E+00  0.2500000E+00  0.0000000E+00  0.4687500E-01
    1      -25.606443   1.000000
    2      -22.384321   1.000000
    3      -22.384305   1.000000
    4      -22.382396   1.000000
    5      -22.378377   1.000000
    6      -22.377119   1.000000
    7      -22.377096   1.000000
    8      -19.110566   1.000000
    9      -19.109841   1.000000
   10      -19.109793   1.000000
   11      -19.108805   1.000000
   12      -19.108598   1.000000
   13       -9.790508   1.000000
   14       -9.760072   1.000000
   15       -9.758852   1.000000
   16       -7.129679   1.000000
   17        0.406150   1.000000
   18        1.489966   1.000000
   19        1.639605   1.000000
   20        3.727270   0.000000
   21        4.171331   0.000000
   22        5.933765   0.000000
   23        6.319847   0.000000
 
  0.5000000E+00  0.2500000E+00  0.0000000E+00  0.4687500E-01
    1      -25.606378   1.000000
    2      -22.384039   1.000000
    3      -22.383620   1.000000
    4      -22.383050   1.000000
    5      -22.377824   1.000000
    6      -22.377769   1.000000
    7      -22.377192   1.000000
    8      -19.110508   1.000000
    9      -19.109929   1.000000
   10      -19.109758   1.000000
   11      -19.108722   1.000000
   12      -19.108633   1.000000
   13       -9.798382   1.000000
   14       -9.765666   1.000000
   15       -9.758125   1.000000
   16       -7.093234   1.000000
   17        0.321461   1.000000
   18        1.127581   1.000000
   19        1.557011   1.000000
   20        3.931935   0.000000
   21        5.003255   0.000000
   22        5.539546   0.000000
   23        6.490570   0.000000
 
 -0.3750000E+00  0.2500000E+00  0.0000000E+00  0.4687500E-01
    1      -25.606366   1.000000
    2      -22.384554   1.000000
    3      -22.382481   1.000000
    4      -22.382045   1.000000
    5      -22.378961   1.000000
    6      -22.378894   1.000000
    7      -22.376568   1.000000
    8      -19.110336   1.000000
    9      -19.110088   1.000000
   10      -19.109794   1.000000
   11      -19.108746   1.000000
   12      -19.108666   1.000000
   13       -9.800006   1.000000
   14       -9.770345   1.000000
   15       -9.755467   1.000000
   16       -7.080118   1.000000
   17        0.309647   1.000000
   18        0.961108   1.000000
   19        1.549965   1.000000
   20        4.304249   0.000000
   21        5.199026   0.000000
   22        6.028826   0.000000
   23        6.031124   0.000000
 
 -0.2500000E+00  0.2500000E+00  0.0000000E+00  0.2343750E-01
    1      -25.606415   1.000000
    2      -22.384667   1.000000
    3      -22.381058   1.000000
    4      -22.380648   1.000000
    5      -22.380350   1.000000
    6      -22.380293   1.000000
    7      -22.376568   1.000000
    8      -19.110268   1.000000
    9      -19.110073   1.000000
   10      -19.109863   1.000000
   11      -19.108827   1.000000
   12      -19.108668   1.000000
   13       -9.798876   1.000000
   14       -9.767022   1.000000
   15       -9.752426   1.000000
   16       -7.098041   1.000000
   17        0.303129   1.000000
   18        1.139492   1.000000
   19        1.624548   1.000000
   20        4.455575   0.000000
   21        5.233681   0.000000
   22        5.294774   0.000000
   23        5.486341   0.000000
 
  0.3750000E+00  0.3750000E+00  0.0000000E+00  0.1171875E-01
    1      -25.606404   1.000000
    2      -22.384732   1.000000
    3      -22.384728   1.000000
    4      -22.383636   1.000000
    5      -22.376951   1.000000
    6      -22.376731   1.000000
    7      -22.376727   1.000000
    8      -19.110757   1.000000
    9      -19.109717   1.000000
   10      -19.109716   1.000000
   11      -19.108729   1.000000
   12      -19.108517   1.000000
   13       -9.789271   1.000000
   14       -9.761928   1.000000
   15       -9.761925   1.000000
   16       -7.126791   1.000000
   17        0.410531   1.000000
   18        1.580812   1.000000
   19        1.580817   1.000000
   20        3.385210   0.000000
   21        3.869439   0.000000
   22        6.340861   0.000000
   23        6.761228   0.000000
 
  0.5000000E+00  0.3750000E+00  0.0000000E+00  0.4687500E-01
    1      -25.606365   1.000000
    2      -22.384815   1.000000
    3      -22.384526   1.000000
    4      -22.384101   1.000000
    5      -22.376950   1.000000
    6      -22.376933   1.000000
    7      -22.376109   1.000000
    8      -19.110755   1.000000
    9      -19.109744   1.000000
   10      -19.109688   1.000000
   11      -19.108661   1.000000
   12      -19.108517   1.000000
   13       -9.789414   1.000000
   14       -9.767755   1.000000
   15       -9.762210   1.000000
   16       -7.111523   1.000000
   17        0.447737   1.000000
   18        1.266047   1.000000
   19        1.531891   1.000000
   20        3.516973   0.000000
   21        4.106190   0.000000
   22        6.332485   0.000000
   23        6.937939   0.000000
 
 -0.3750000E+00  0.3750000E+00  0.0000000E+00  0.2343750E-01
    1      -25.606348   1.000000
    2      -22.384992   1.000000
    3      -22.383731   1.000000
    4      -22.383298   1.000000
    5      -22.377731   1.000000
    6      -22.377696   1.000000
    7      -22.375979   1.000000
    8      -19.110560   1.000000
    9      -19.109915   1.000000
   10      -19.109722   1.000000
   11      -19.108639   1.000000
   12      -19.108615   1.000000
   13       -9.782785   1.000000
   14       -9.782333   1.000000
   15       -9.759535   1.000000
   16       -7.092331   1.000000
   17        0.612359   1.000000
   18        0.752363   1.000000
   19        1.518855   1.000000
   20        3.859039   0.000000
   21        4.976909   0.000000
   22        6.031170   0.000000
   23        6.400245   0.000000
 
  0.5000000E+00  0.5000000E+00  0.0000000E+00  0.5859375E-02
    1      -25.606361   1.000000
    2      -22.384837   1.000000
    3      -22.384832   1.000000
    4      -22.384739   1.000000
    5      -22.376649   1.000000
    6      -22.376645   1.000000
    7      -22.375712   1.000000
    8      -19.110876   1.000000
    9      -19.109667   1.000000
   10      -19.109666   1.000000
   11      -19.108633   1.000000
   12      -19.108478   1.000000
   13       -9.790364   1.000000
   14       -9.763898   1.000000
   15       -9.763895   1.000000
   16       -7.119032   1.000000
   17        0.427019   1.000000
   18        1.521938   1.000000
   19        1.521943   1.000000
   20        3.258583   0.000000
   21        3.716590   0.000000
   22        6.845878   0.000000
   23        7.086272   0.000000
 
  0.3750000E+00  0.2500000E+00  0.1250000E+00  0.4687500E-01
    1      -25.606488   1.000000
    2      -22.384521   1.000000
    3      -22.383258   1.000000
    4      -22.380957   1.000000
    5      -22.380038   1.000000
    6      -22.378093   1.000000
    7      -22.376839   1.000000
    8      -19.110387   1.000000
    9      -19.109929   1.000000
   10      -19.109875   1.000000
   11      -19.108855   1.000000
   12      -19.108668   1.000000
   13       -9.789782   1.000000
   14       -9.760066   1.000000
   15       -9.753422   1.000000
   16       -7.141809   1.000000
   17        0.444006   1.000000
   18        1.515955   1.000000
   19        1.703026   1.000000
   20        4.026046   0.000000
   21        4.238043   0.000000
   22        5.692445   0.000000
   23        5.728966   0.000000
 
  0.5000000E+00  0.2500000E+00  0.1250000E+00  0.9375000E-01
    1      -25.606405   1.000000
    2      -22.384429   1.000000
    3      -22.382361   1.000000
    4      -22.382036   1.000000
    5      -22.379254   1.000000
    6      -22.378602   1.000000
    7      -22.376885   1.000000
    8      -19.110389   1.000000
    9      -19.110005   1.000000
   10      -19.109811   1.000000
   11      -19.108795   1.000000
   12      -19.108657   1.000000
   13       -9.800246   1.000000
   14       -9.763934   1.000000
   15       -9.755269   1.000000
   16       -7.096551   1.000000
   17        0.279031   1.000000
   18        1.227976   1.000000
   19        1.555698   1.000000
   20        4.241837   0.000000
   21        4.905818   0.000000
   22        5.389391   0.000000
   23        6.224629   0.000000
 
 -0.3750000E+00  0.2500000E+00  0.1250000E+00  0.4687500E-01
    1      -25.606370   1.000000
    2      -22.384077   1.000000
    3      -22.383133   1.000000
    4      -22.380817   1.000000
    5      -22.380494   1.000000
    6      -22.377542   1.000000
    7      -22.377452   1.000000
    8      -19.110353   1.000000
    9      -19.110078   1.000000
   10      -19.109787   1.000000
   11      -19.108728   1.000000
   12      -19.108702   1.000000
   13       -9.804583   1.000000
   14       -9.764724   1.000000
   15       -9.756675   1.000000
   16       -7.077953   1.000000
   17        0.221179   1.000000
   18        1.118278   1.000000
   19        1.498143   1.000000
   20        4.368023   0.000000
   21        4.933716   0.000000
   22        5.906436   0.000000
   23        6.129470   0.000000
 
  0.5000000E+00  0.3750000E+00  0.1250000E+00  0.4687500E-01
    1      -25.606388   1.000000
    2      -22.384877   1.000000
    3      -22.383521   1.000000
    4      -22.383498   1.000000
    5      -22.377920   1.000000
    6      -22.377084   1.000000
    7      -22.376597   1.000000
    8      -19.110602   1.000000
    9      -19.109868   1.000000
   10      -19.109724   1.000000
   11      -19.108727   1.000000
   12      -19.108574   1.000000
   13       -9.791502   1.000000
   14       -9.765460   1.000000
   15       -9.761389   1.000000
   16       -7.108431   1.000000
   17        0.411845   1.000000
   18        1.299868   1.000000
   19        1.438643   1.000000
   20        3.924679   0.000000
   21        4.343540   0.000000
   22        5.717341   0.000000
   23        6.852590   0.000000
 
 -0.3750000E+00  0.3750000E+00  0.1250000E+00  0.9375000E-01
    1      -25.606353   1.000000
    2      -22.385085   1.000000
    3      -22.383883   1.000000
    4      -22.382265   1.000000
    5      -22.379158   1.000000
    6      -22.376709   1.000000
    7      -22.376335   1.000000
    8      -19.110467   1.000000
    9      -19.110040   1.000000
   10      -19.109694   1.000000
   11      -19.108669   1.000000
   12      -19.108610   1.000000
   13       -9.789010   1.000000
   14       -9.773124   1.000000
   15       -9.762747   1.000000
   16       -7.090265   1.000000
   17        0.521642   1.000000
   18        0.927363   1.000000
   19        1.352168   1.000000
   20        4.249390   0.000000
   21        5.037521   0.000000
   22        5.410547   0.000000
   23        6.154306   0.000000
 
 -0.2500000E+00  0.3750000E+00  0.1250000E+00  0.4687500E-01
    1      -25.606360   1.000000
    2      -22.385006   1.000000
    3      -22.383393   1.000000
    4      -22.380763   1.000000
    5      -22.380618   1.000000
    6      -22.377404   1.000000
    7      -22.376295   1.000000
    8      -19.110259   1.000000
    9      -19.110220   1.000000
   10      -19.109740   1.000000
   11      -19.108717   1.000000
   12      -19.108632   1.000000
   13       -9.792107   1.000000
   14       -9.774068   1.000000
   15       -9.759200   1.000000
   16       -7.085239   1.000000
   17        0.464754   1.000000
   18        0.885514   1.000000
   19        1.414619   1.000000
   20        4.644257   0.000000
   21        5.087346   0.000000
   22        5.235619   0.000000
   23        6.042083   0.000000
 
 -0.3750000E+00  0.5000000E+00  0.1250000E+00  0.2343750E-01
    1      -25.606351   1.000000
    2      -22.385297   1.000000
    3      -22.384269   1.000000
    4      -22.383634   1.000000
    5      -22.377845   1.000000
    6      -22.376513   1.000000
    7      -22.375840   1.000000
    8      -19.110692   1.000000
    9      -19.109835   1.000000
   10      -19.109651   1.000000
   11      -19.108632   1.000000
   12      -19.108540   1.000000
   13       -9.786431   1.000000
   14       -9.767942   1.000000
   15       -9.767713   1.000000
   16       -7.104118   1.000000
   17        0.520563   1.000000
   18        1.226531   1.000000
   19        1.272606   1.000000
   20        3.814791   0.000000
   21        4.250811   0.000000
   22        6.322844   0.000000
   23        6.423189   0.000000
 
 -0.2500000E+00  0.5000000E+00  0.2500000E+00  0.1171875E-01
    1      -25.606342   1.000000
    2      -22.385508   1.000000
    3      -22.384058   1.000000
    4      -22.380737   1.000000
    5      -22.380734   1.000000
    6      -22.376263   1.000000
    7      -22.376078   1.000000
    8      -19.110257   1.000000
    9      -19.110257   1.000000
   10      -19.109632   1.000000
   11      -19.108633   1.000000
   12      -19.108582   1.000000
   13       -9.777013   1.000000
   14       -9.777010   1.000000
   15       -9.771955   1.000000
   16       -7.089141   1.000000
   17        0.799596   1.000000
   18        0.799604   1.000000
   19        1.076096   1.000000
   20        4.998835   0.000000
   21        4.998839   0.000000
   22        5.033868   0.000000
   23        5.582073   0.000000
