 vasp.5.4.4.18Apr17-6-g9f103f2a35 (build Jun 23 2019 17:35:09) complex          
  
 executed on             LinuxIFC date 2020.01.14  23:10:29
 running on   28 total cores
 distrk:  each k-point on    7 cores,    4 groups
 distr:  one band on NCORES_PER_BAND=   7 cores,    1 groups


--------------------------------------------------------------------------------------------------------


 INCAR:
 POTCAR:    PAW_PBE Bi_d 06Sep2000                
 POTCAR:    PAW_PBE Na_pv 19Sep2006               
 POTCAR:    PAW_PBE Rb_sv 06Sep2000               

 ----------------------------------------------------------------------------- 
|                                                                             |
|           W    W    AA    RRRRR   N    N  II  N    N   GGGG   !!!           |
|           W    W   A  A   R    R  NN   N  II  NN   N  G    G  !!!           |
|           W    W  A    A  R    R  N N  N  II  N N  N  G       !!!           |
|           W WW W  AAAAAA  RRRRR   N  N N  II  N  N N  G  GGG   !            |
|           WW  WW  A    A  R   R   N   NN  II  N   NN  G    G                |
|           W    W  A    A  R    R  N    N  II  N    N   GGGG   !!!           |
|                                                                             |
|      You have enabled k-point parallelism (KPAR>1).                         |
|      This developmental code was originally  written by Paul Kent at ORNL,  |
|      and carefully double checked in Vienna.                                |
|      GW as well as linear response parallelism added by Martijn Marsman     |
|      and Georg Kresse.                                                      |
|      Carefully verify results versus KPAR=1.                                |
|      Report problems to Paul Kent and Vienna.                               |
|                                                                             |
 ----------------------------------------------------------------------------- 

 POTCAR:    PAW_PBE Bi_d 06Sep2000                
   VRHFIN =Bi:                                                                  
   LEXCH  = PE                                                                  
   EATOM  =  1959.2045 eV,  143.9975 Ry                                         
                                                                                
   TITEL  = PAW_PBE Bi_d 06Sep2000                                              
   LULTRA =        F    use ultrasoft PP ?                                      
   IUNSCR =        1    unscreen: 0-lin 1-nonlin 2-no                           
   RPACOR =    2.200    partial core radius                                     
   POMASS =  208.980; ZVAL   =   15.000    mass and valenz                      
   RCORE  =    2.500    outmost cutoff radius                                   
   RWIGS  =    3.090; RWIGS  =    1.635    wigner-seitz radius (au A)           
   ENMAX  =  242.839; ENMIN  =  182.129 eV                                      
   ICORE  =        3    local potential                                         
   LCOR   =        T    correct aug charges                                     
   LPAW   =        T    paw PP                                                  
   EAUG   =  442.899                                                            
   DEXC   =    0.000                                                            
   RMAX   =    2.551    core radius for proj-oper                               
   RAUG   =    1.300    factor for augmentation sphere                          
   RDEP   =    2.650    radius for radial grids                                 
   RDEPT  =    2.039    core radius for aug-charge                              
                                                                                
   Atomic configuration                                                         
   16 entries                                                                   
     n  l   j            E        occ.                                          
     1  0  0.50    -90639.6581   2.0000                                         
     2  0  0.50    -16282.4666   2.0000                                         
     2  1  1.50    -13922.8286   6.0000                                         
     3  0  0.50     -3930.4763   2.0000                                         
     3  1  1.50     -3256.7013   6.0000                                         
     3  2  2.50     -2581.6168  10.0000                                         
     4  0  0.50      -902.2614   2.0000                                         
     4  1  1.50      -681.5915   6.0000                                         
     4  2  2.50      -429.8249  10.0000                                         
     4  3  3.50      -152.6004  14.0000                                         
     5  0  0.50      -157.7156   2.0000                                         
     5  1  1.50       -95.8054   6.0000                                         
     5  2  2.50       -27.0806  10.0000                                         
     6  0  0.50       -14.4732   2.0000                                         
     6  1  1.50        -4.5702   3.0000                                         
     5  3  2.50        -2.7212   0.0000                                         
   Description                                                                  
     l       E           TYP  RCUT    TYP  RCUT                                 
     2    -27.0805982     23  2.500                                             
     2     -1.3605826     23  2.500                                             
     0    -14.4732271     23  2.500                                             
     0      6.8029130     23  2.500                                             
     1     -4.5701651     23  2.500                                             
     1     13.6058260     23  2.500                                             
     3     -1.3605826      7  2.500                                             
  local pseudopotential read in
  partial core-charges read in
  partial kinetic energy density read in
  atomic valenz-charges read in
  non local Contribution for L=           2  read in
    real space projection operators read in
  non local Contribution for L=           2  read in
    real space projection operators read in
  non local Contribution for L=           0  read in
    real space projection operators read in
  non local Contribution for L=           0  read in
    real space projection operators read in
  non local Contribution for L=           1  read in
    real space projection operators read in
  non local Contribution for L=           1  read in
    real space projection operators read in
    PAW grid and wavefunctions read in
 
   number of l-projection  operators is LMAX  =           6
   number of lm-projection operators is LMMAX =          18
 
 POTCAR:    PAW_PBE Na_pv 19Sep2006               
   VRHFIN =Na: p6s1                                                             
   LEXCH  = PE                                                                  
   EATOM  =   766.0439 eV,   56.3026 Ry                                         
                                                                                
   TITEL  = PAW_PBE Na_pv 19Sep2006                                             
   LULTRA =        F    use ultrasoft PP ?                                      
   IUNSCR =        1    unscreen: 0-lin 1-nonlin 2-no                           
   RPACOR =    1.800    partial core radius                                     
   POMASS =   22.990; ZVAL   =    7.000    mass and valenz                      
   RCORE  =    2.200    outmost cutoff radius                                   
   RWIGS  =    2.200; RWIGS  =    1.164    wigner-seitz radius (au A)           
   ENMAX  =  259.561; ENMIN  =  194.671 eV                                      
   ICORE  =        2    local potential                                         
   LCOR   =        T    correct aug charges                                     
   LPAW   =        T    paw PP                                                  
   EAUG   =  368.056                                                            
   DEXC   =    0.000                                                            
   RMAX   =    2.245    core radius for proj-oper                               
   RAUG   =    1.300    factor for augmentation sphere                          
   RDEP   =    2.259    radius for radial grids                                 
   RDEPT  =    1.738    core radius for aug-charge                              
                                                                                
   Atomic configuration                                                         
    5 entries                                                                   
     n  l   j            E        occ.                                          
     1  0  0.50     -1033.6933   2.0000                                         
     2  0  0.50       -56.7526   2.0000                                         
     2  1  1.50       -28.6721   6.0000                                         
     3  0  0.50        -2.7440   1.0000                                         
     3  2  1.50        -1.3606   0.0000                                         
   Description                                                                  
     l       E           TYP  RCUT    TYP  RCUT                                 
     1    -28.6720912     23  2.000                                             
     1      6.8029130     23  2.000                                             
     0     -2.7439560     23  2.200                                             
     0     34.0145650     23  2.200                                             
     2     -1.3605826     23  2.200                                             
  local pseudopotential read in
  partial core-charges read in
  partial kinetic energy density read in
  atomic valenz-charges read in
  non local Contribution for L=           1  read in
    real space projection operators read in
  non local Contribution for L=           1  read in
    real space projection operators read in
  non local Contribution for L=           0  read in
    real space projection operators read in
  non local Contribution for L=           0  read in
    real space projection operators read in
    PAW grid and wavefunctions read in
 
   number of l-projection  operators is LMAX  =           4
   number of lm-projection operators is LMMAX =           8
 
 POTCAR:    PAW_PBE Rb_sv 06Sep2000               
   VRHFIN =Rb: 4s4p5s                                                           
   LEXCH  = PE                                                                  
   EATOM  =   662.5034 eV,   48.6926 Ry                                         
                                                                                
   TITEL  = PAW_PBE Rb_sv 06Sep2000                                             
   LULTRA =        F    use ultrasoft PP ?                                      
   IUNSCR =        1    unscreen: 0-lin 1-nonlin 2-no                           
   RPACOR =    2.200    partial core radius                                     
   POMASS =   85.468; ZVAL   =    9.000    mass and valenz                      
   RCORE  =    2.500    outmost cutoff radius                                   
   RWIGS  =    4.570; RWIGS  =    2.418    wigner-seitz radius (au A)           
   ENMAX  =  220.112; ENMIN  =  165.084 eV                                      
   RCLOC  =    2.200    cutoff for local pot                                    
   LCOR   =        T    correct aug charges                                     
   LPAW   =        T    paw PP                                                  
   EAUG   =  423.861                                                            
   DEXC   =    0.000                                                            
   RMAX   =    2.546    core radius for proj-oper                               
   RAUG   =    1.300    factor for augmentation sphere                          
   RDEP   =    2.541    radius for radial grids                                 
   RDEPT  =    2.044    core radius for aug-charge                              
                                                                                
   Atomic configuration                                                         
   10 entries                                                                   
     n  l   j            E        occ.                                          
     1  0  0.50    -15031.5419   2.0000                                         
     2  0  0.50     -2007.8842   2.0000                                         
     2  1  1.50     -1779.8144   6.0000                                         
     3  0  0.50      -297.9619   2.0000                                         
     3  1  1.50      -224.8335   6.0000                                         
     3  2  2.50      -103.9539  10.0000                                         
     4  0  0.50       -31.8932   2.0000                                         
     5  0  0.50        -2.2327   0.9990                                         
     4  1  1.50       -15.9645   6.0000                                         
     4  2  1.50        -0.0020   0.0010                                         
   Description                                                                  
     l       E           TYP  RCUT    TYP  RCUT                                 
     0    -31.8932387     23  2.500                                             
     0     -2.2326525     23  2.500                                             
     1    -15.9644597     23  2.500                                             
     1    -17.3250423     23  2.500                                             
     2     -0.0020100     23  2.500                                             
  local pseudopotential read in
  partial core-charges read in
  partial kinetic energy density read in
  atomic valenz-charges read in
  non local Contribution for L=           0  read in
    real space projection operators read in
  non local Contribution for L=           0  read in
    real space projection operators read in
  non local Contribution for L=           1  read in
    real space projection operators read in
  non local Contribution for L=           1  read in
    real space projection operators read in
  non local Contribution for L=           2  read in
    real space projection operators read in
    PAW grid and wavefunctions read in
 
   number of l-projection  operators is LMAX  =           5
   number of lm-projection operators is LMMAX =          13
 
  PAW_PBE Bi_d 06Sep2000                :
 energy of atom  1       EATOM=-1959.2045
 kinetic energy error for atom=    0.0040 (will be added to EATOM!!)
  PAW_PBE Na_pv 19Sep2006               :
 energy of atom  2       EATOM= -766.0439
 kinetic energy error for atom=    0.0019 (will be added to EATOM!!)
  PAW_PBE Rb_sv 06Sep2000               :
 energy of atom  3       EATOM= -662.5034
 kinetic energy error for atom=    0.0006 (will be added to EATOM!!)
 
 
 POSCAR: Na Bi Rb                                
  positions in direct lattice
  No initial velocities read in
 exchange correlation table for  LEXCH =        8
   RHO(1)=    0.500       N(1)  =     2000
   RHO(2)=  100.500       N(2)  =     4000
 


--------------------------------------------------------------------------------------------------------


 ion  position               nearest neighbor table
   1  0.250  0.250  0.250-   4 4.00   4 4.00   4 4.00   4 4.00   4 4.00   4 4.00
   2  0.000  0.000  0.000-   4 3.46   4 3.46   4 3.46   4 3.46
   3  0.500  0.500  0.500-   4 3.46   4 3.46   4 3.46   4 3.46
   4  0.750  0.750  0.750-   3 3.46   2 3.46   2 3.46   2 3.46   3 3.46   3 3.46   3 3.46   2 3.46
                             1 4.00   1 4.00   1 4.00   1 4.00   1 4.00   1 4.00
 
  LATTYP: Found a face centered cubic cell.
 ALAT       =     7.9967140000
  
  Lattice vectors:
  
 A1 = (   0.0000000000,   3.9983570000,   3.9983570000)
 A2 = (   3.9983570000,   0.0000000000,   3.9983570000)
 A3 = (   3.9983570000,   3.9983570000,   0.0000000000)


Analysis of symmetry for initial positions (statically):
=====================================================================
 Subroutine PRICEL returns:
 Original cell was already a primitive cell.
 

 Routine SETGRP: Setting up the symmetry group for a 
 face centered cubic supercell.


 Subroutine GETGRP returns: Found 48 space group operations
 (whereof 24 operations were pure point group operations)
 out of a pool of 48 trial point group operations.


The static configuration has the point symmetry T_d .
 The point group associated with its full space group is O_h .


Analysis of symmetry for dynamics (positions and initial velocities):
=====================================================================
 Subroutine PRICEL returns:
 Original cell was already a primitive cell.
 

 Routine SETGRP: Setting up the symmetry group for a 
 face centered cubic supercell.


 Subroutine GETGRP returns: Found 48 space group operations
 (whereof 24 operations were pure point group operations)
 out of a pool of 48 trial point group operations.


The dynamic configuration has the point symmetry T_d .
 The point group associated with its full space group is O_h .


 Subroutine INISYM returns: Found 48 space group operations
 (whereof 24 operations are pure point group operations),
 and found     1 'primitive' translations

 
 
 KPOINTS: KPOINTS                                 

Automatic generation of k-mesh.
Space group operators:
 irot       det(A)        alpha          n_x          n_y          n_z        tau_x        tau_y        tau_z
    1     1.000000     0.000000     1.000000     0.000000     0.000000     0.000000     0.000000     0.000000
    2     1.000000   120.000000    -0.577350    -0.577350    -0.577350     0.000000     0.000000     0.000000
    3     1.000000   120.000000     0.577350     0.577350     0.577350     0.000000     0.000000     0.000000
    4    -1.000000    90.000000     0.000000     0.000000    -1.000000     0.000000     0.000000     0.000000
    5    -1.000000   180.000000     0.000000     0.707107     0.707107     0.000000     0.000000     0.000000
    6    -1.000000    90.000000     0.000000     1.000000     0.000000     0.000000     0.000000     0.000000
    7     1.000000   180.000000     0.000000     0.000000     1.000000     0.000000     0.000000     0.000000
    8     1.000000   120.000000    -0.577350     0.577350     0.577350     0.000000     0.000000     0.000000
    9     1.000000   120.000000    -0.577350     0.577350    -0.577350     0.000000     0.000000     0.000000
   10    -1.000000    90.000000     0.000000     0.000000     1.000000     0.000000     0.000000     0.000000
   11    -1.000000    90.000000    -1.000000     0.000000     0.000000     0.000000     0.000000     0.000000
   12    -1.000000   180.000000     0.707107     0.000000     0.707107     0.000000     0.000000     0.000000
   13     1.000000   120.000000     0.577350    -0.577350     0.577350     0.000000     0.000000     0.000000
   14     1.000000   120.000000    -0.577350    -0.577350     0.577350     0.000000     0.000000     0.000000
   15     1.000000   180.000000     1.000000     0.000000     0.000000     0.000000     0.000000     0.000000
   16    -1.000000    90.000000     0.000000    -1.000000     0.000000     0.000000     0.000000     0.000000
   17    -1.000000   180.000000     0.707107     0.707107     0.000000     0.000000     0.000000     0.000000
   18    -1.000000    90.000000     1.000000     0.000000     0.000000     0.000000     0.000000     0.000000
   19     1.000000   120.000000     0.577350    -0.577350    -0.577350     0.000000     0.000000     0.000000
   20     1.000000   180.000000     0.000000     1.000000     0.000000     0.000000     0.000000     0.000000
   21     1.000000   120.000000     0.577350     0.577350    -0.577350     0.000000     0.000000     0.000000
   22    -1.000000   180.000000     0.000000    -0.707107     0.707107     0.000000     0.000000     0.000000
   23    -1.000000   180.000000     0.707107    -0.707107     0.000000     0.000000     0.000000     0.000000
   24    -1.000000   180.000000     0.707107     0.000000    -0.707107     0.000000     0.000000     0.000000
   25    -1.000000     0.000000     1.000000     0.000000     0.000000     0.500000     0.500000     0.500000
   26    -1.000000   120.000000    -0.577350    -0.577350    -0.577350     0.500000     0.500000     0.500000
   27    -1.000000   120.000000     0.577350     0.577350     0.577350     0.500000     0.500000     0.500000
   28     1.000000    90.000000     0.000000     0.000000    -1.000000     0.500000     0.500000     0.500000
   29     1.000000   180.000000     0.000000     0.707107     0.707107     0.500000     0.500000     0.500000
   30     1.000000    90.000000     0.000000     1.000000     0.000000     0.500000     0.500000     0.500000
   31    -1.000000   180.000000     0.000000     0.000000     1.000000     0.500000     0.500000     0.500000
   32    -1.000000   120.000000    -0.577350     0.577350     0.577350     0.500000     0.500000     0.500000
   33    -1.000000   120.000000    -0.577350     0.577350    -0.577350     0.500000     0.500000     0.500000
   34     1.000000    90.000000     0.000000     0.000000     1.000000     0.500000     0.500000     0.500000
   35     1.000000    90.000000    -1.000000     0.000000     0.000000     0.500000     0.500000     0.500000
   36     1.000000   180.000000     0.707107     0.000000     0.707107     0.500000     0.500000     0.500000
   37    -1.000000   120.000000     0.577350    -0.577350     0.577350     0.500000     0.500000     0.500000
   38    -1.000000   120.000000    -0.577350    -0.577350     0.577350     0.500000     0.500000     0.500000
   39    -1.000000   180.000000     1.000000     0.000000     0.000000     0.500000     0.500000     0.500000
   40     1.000000    90.000000     0.000000    -1.000000     0.000000     0.500000     0.500000     0.500000
   41     1.000000   180.000000     0.707107     0.707107     0.000000     0.500000     0.500000     0.500000
   42     1.000000    90.000000     1.000000     0.000000     0.000000     0.500000     0.500000     0.500000
   43    -1.000000   120.000000     0.577350    -0.577350    -0.577350     0.500000     0.500000     0.500000
   44    -1.000000   180.000000     0.000000     1.000000     0.000000     0.500000     0.500000     0.500000
   45    -1.000000   120.000000     0.577350     0.577350    -0.577350     0.500000     0.500000     0.500000
   46     1.000000   180.000000     0.000000    -0.707107     0.707107     0.500000     0.500000     0.500000
   47     1.000000   180.000000     0.707107    -0.707107     0.000000     0.500000     0.500000     0.500000
   48     1.000000   180.000000     0.707107     0.000000    -0.707107     0.500000     0.500000     0.500000
 
 Subroutine IBZKPT returns following result:
 ===========================================
 
 Found     29 irreducible k-points:
 
 Following reciprocal coordinates:
            Coordinates               Weight
  0.000000  0.000000  0.000000      1.000000
  0.125000  0.000000  0.000000      8.000000
  0.250000  0.000000  0.000000      8.000000
  0.375000  0.000000  0.000000      8.000000
  0.500000  0.000000  0.000000      4.000000
  0.125000  0.125000  0.000000      6.000000
  0.250000  0.125000  0.000000     24.000000
  0.375000  0.125000  0.000000     24.000000
  0.500000  0.125000  0.000000     24.000000
 -0.375000  0.125000  0.000000     24.000000
 -0.250000  0.125000  0.000000     24.000000
 -0.125000  0.125000  0.000000     12.000000
  0.250000  0.250000  0.000000      6.000000
  0.375000  0.250000  0.000000     24.000000
  0.500000  0.250000  0.000000     24.000000
 -0.375000  0.250000  0.000000     24.000000
 -0.250000  0.250000  0.000000     12.000000
  0.375000  0.375000  0.000000      6.000000
  0.500000  0.375000  0.000000     24.000000
 -0.375000  0.375000  0.000000     12.000000
  0.500000  0.500000  0.000000      3.000000
  0.375000  0.250000  0.125000     24.000000
  0.500000  0.250000  0.125000     48.000000
 -0.375000  0.250000  0.125000     24.000000
  0.500000  0.375000  0.125000     24.000000
 -0.375000  0.375000  0.125000     48.000000
 -0.250000  0.375000  0.125000     24.000000
 -0.375000  0.500000  0.125000     12.000000
 -0.250000  0.500000  0.250000      6.000000
 
 Following cartesian coordinates:
            Coordinates               Weight
  0.000000  0.000000  0.000000      1.000000
 -0.015631  0.015631  0.015631      8.000000
 -0.031263  0.031263  0.031263      8.000000
 -0.046894  0.046894  0.046894      8.000000
 -0.062526  0.062526  0.062526      4.000000
  0.000000  0.000000  0.031263      6.000000
 -0.015631  0.015631  0.046894     24.000000
 -0.031263  0.031263  0.062526     24.000000
 -0.046894  0.046894  0.078157     24.000000
  0.062526 -0.062526 -0.031263     24.000000
  0.046894 -0.046894 -0.015631     24.000000
  0.031263 -0.031263  0.000000     12.000000
  0.000000  0.000000  0.062526      6.000000
 -0.015631  0.015631  0.078157     24.000000
 -0.031263  0.031263  0.093789     24.000000
  0.078157 -0.078157 -0.015631     24.000000
  0.062526 -0.062526  0.000000     12.000000
  0.000000  0.000000  0.093789      6.000000
 -0.015631  0.015631  0.109420     24.000000
  0.093789 -0.093789  0.000000     12.000000
  0.000000  0.000000  0.125051      3.000000
  0.000000  0.031263  0.062526     24.000000
 -0.015631  0.046894  0.078157     48.000000
  0.093789 -0.062526 -0.031263     24.000000
  0.000000  0.031263  0.093789     24.000000
  0.109420 -0.078157 -0.015631     48.000000
  0.093789 -0.062526  0.000000     24.000000
  0.125051 -0.093789  0.000000     12.000000
  0.125051 -0.062526  0.000000      6.000000
 


--------------------------------------------------------------------------------------------------------




 Dimension of arrays:
   k-points           NKPTS =     29   k-points in BZ     NKDIM =     29   number of bands    NBANDS=     23
   number of dos      NEDOS =    301   number of ions     NIONS =      4
   non local maximal  LDIM  =      6   non local SUM 2l+1 LMDIM =     18
   total plane-waves  NPLWV =  74088
   max r-space proj   IRMAX =      1   max aug-charges    IRDMAX=  27553
   dimension x,y,z NGX =    42 NGY =   42 NGZ =   42
   dimension x,y,z NGXF=    84 NGYF=   84 NGZF=   84
   support grid    NGXF=    84 NGYF=   84 NGZF=   84
   ions per type =               1   2   1
   NGX,Y,Z   is equivalent  to a cutoff of  12.35, 12.35, 12.35 a.u.
   NGXF,Y,Z  is equivalent  to a cutoff of  24.70, 24.70, 24.70 a.u.

 SYSTEM =  unknown system                          
 POSCAR =  Na Bi Rb                                

 Startparameter for this run:
   NWRITE =      2    write-flag & timer
   PREC   = acc       normal or accurate (medium, high low for compatibility)
   ISTART =      0    job   : 0-new  1-cont  2-samecut
   ICHARG =      2    charge: 1-file 2-atom 10-const
   ISPIN  =      1    spin polarized calculation?
   LNONCOLLINEAR =      F non collinear calculations
   LSORBIT =      F    spin-orbit coupling
   INIWAV =      1    electr: 0-lowe 1-rand  2-diag
   LASPH  =      F    aspherical Exc in radial PAW
   METAGGA=      F    non-selfconsistent MetaGGA calc.

 Electronic Relaxation 1
   ENCUT  =  520.0 eV  38.22 Ry    6.18 a.u.  10.51 10.51 10.51*2*pi/ulx,y,z
   ENINI  =  520.0     initial cutoff
   ENAUG  =  442.9 eV  augmentation charge cutoff
   NELM   =     60;   NELMIN=  5; NELMDL= -5     # of ELM steps 
   EDIFF  = 0.1E-04   stopping-criterion for ELM
   LREAL  =      F    real-space projection
   NLSPLINE    = F    spline interpolate recip. space projectors
   LCOMPAT=      F    compatible to vasp.4.4
   GGA_COMPAT  = T    GGA compatible to vasp.4.4-vasp.4.6
   LMAXPAW     = -100 max onsite density
   LMAXMIX     =    2 max onsite mixed and CHGCAR
   VOSKOWN=      0    Vosko Wilk Nusair interpolation
   ROPT   =    0.00000   0.00000   0.00000
 Ionic relaxation
   EDIFFG = -.1E-02   stopping-criterion for IOM
   NSW    =    100    number of steps for IOM
   NBLOCK =      1;   KBLOCK =    100    inner block; outer block 
   IBRION =      2    ionic relax: 0-MD 1-quasi-New 2-CG
   NFREE  =      1    steps in history (QN), initial steepest desc. (CG)
   ISIF   =      3    stress and relaxation
   IWAVPR =     11    prediction:  0-non 1-charg 2-wave 3-comb
   ISYM   =      2    0-nonsym 1-usesym 2-fastsym
   LCORR  =      T    Harris-Foulkes like correction to forces

   POTIM  = 0.5000    time-step for ionic-motion
   TEIN   =    0.0    initial temperature
   TEBEG  =    0.0;   TEEND  =   0.0 temperature during run
   SMASS  =  -3.00    Nose mass-parameter (am)
   estimated Nose-frequenzy (Omega)   =  0.10E-29 period in steps =****** mass=  -0.731E-27a.u.
   SCALEE = 1.0000    scale energy and forces
   NPACO  =    256;   APACO  = 16.0  distance and # of slots for P.C.
   PSTRESS=    0.0 pullay stress

  Mass of Ions in am
   POMASS = 208.98 22.99 85.47
  Ionic Valenz
   ZVAL   =  15.00  7.00  9.00
  Atomic Wigner-Seitz radii
   RWIGS  =  -1.00 -1.00 -1.00
  virtual crystal weights 
   VCA    =   1.00  1.00  1.00
   NELECT =      38.0000    total number of electrons
   NUPDOWN=      -1.0000    fix difference up-down

 DOS related values:
   EMIN   =  10.00;   EMAX   =-10.00  energy-range for DOS
   EFERMI =   0.00
   ISMEAR =     0;   SIGMA  =   0.05  broadening in eV -4-tet -1-fermi 0-gaus

 Electronic relaxation 2 (details)
   IALGO  =     38    algorithm
   LDIAG  =      T    sub-space diagonalisation (order eigenvalues)
   LSUBROT=      F    optimize rotation matrix (better conditioning)
   TURBO    =      0    0=normal 1=particle mesh
   IRESTART =      0    0=no restart 2=restart with 2 vectors
   NREBOOT  =      0    no. of reboots
   NMIN     =      0    reboot dimension
   EREF     =   0.00    reference energy to select bands
   IMIX   =      4    mixing-type and parameters
     AMIX     =   0.40;   BMIX     =  1.00
     AMIX_MAG =   1.60;   BMIX_MAG =  1.00
     AMIN     =   0.10
     WC   =   100.;   INIMIX=   1;  MIXPRE=   1;  MAXMIX= -45

 Intra band minimization:
   WEIMIN = 0.0010     energy-eigenvalue tresh-hold
   EBREAK =  0.11E-06  absolut break condition
   DEPER  =   0.30     relativ break condition  

   TIME   =   0.40     timestep for ELM

  volume/ion in A,a.u.               =      31.96       215.68
  Fermi-wavevector in a.u.,A,eV,Ry     =   1.092558  2.064635 16.241040  1.193683
  Thomas-Fermi vector in A             =   2.228826
 
 Write flags
   LWAVE        =      F    write WAVECAR
   LDOWNSAMPLE  =      F    k-point downsampling of WAVECAR
   LCHARG       =      F    write CHGCAR
   LVTOT        =      F    write LOCPOT, total local potential
   LVHAR        =      F    write LOCPOT, Hartree potential only
   LELF         =      F    write electronic localiz. function (ELF)
   LORBIT       =      0    0 simple, 1 ext, 2 COOP (PROOUT), +10 PAW based schemes


 Dipole corrections
   LMONO  =      F    monopole corrections only (constant potential shift)
   LDIPOL =      F    correct potential (dipole corrections)
   IDIPOL =      0    1-x, 2-y, 3-z, 4-all directions 
   EPSILON=  1.0000000 bulk dielectric constant

 Exchange correlation treatment:
   GGA     =    PE    GGA type
   LEXCH   =     8    internal setting for exchange type
   VOSKOWN=      0    Vosko Wilk Nusair interpolation
   LHFCALC =     F    Hartree Fock is set to
   LHFONE  =     F    Hartree Fock one center treatment
   AEXX    =    0.0000 exact exchange contribution

 Linear response parameters
   LEPSILON=     F    determine dielectric tensor
   LRPA    =     F    only Hartree local field effects (RPA)
   LNABLA  =     F    use nabla operator in PAW spheres
   LVEL    =     F    velocity operator in full k-point grid
   LINTERFAST=   F  fast interpolation
   KINTER  =     0    interpolate to denser k-point grid
   CSHIFT  =0.1000    complex shift for real part using Kramers Kronig
   OMEGAMAX=  -1.0    maximum frequency
   DEG_THRESHOLD= 0.2000000E-02 threshold for treating states as degnerate
   RTIME   =   -0.100 relaxation time in fs
  (WPLASMAI=    0.000 imaginary part of plasma frequency in eV, 0.658/RTIME)
   DFIELD  = 0.0000000 0.0000000 0.0000000 field for delta impulse in time
 
 Orbital magnetization related:
   ORBITALMAG=     F  switch on orbital magnetization
   LCHIMAG   =     F  perturbation theory with respect to B field
   DQ        =  0.001000  dq finite difference perturbation B field
   LLRAUG    =     F  two centre corrections for induced B field



--------------------------------------------------------------------------------------------------------


 conjugate gradient relaxation of ions
 charge density and potential will be updated during run
 non-spin polarized calculation
 Variant of blocked Davidson
 Davidson routine will perform the subspace rotation
 perform sub-space diagonalisation
    after iterative eigenvector-optimisation
 modified Broyden-mixing scheme, WC =      100.0
 initial mixing is a Kerker type mixing with AMIX =  0.4000 and BMIX =      1.0000
 Hartree-type preconditioning will be used
 using additional bands            4
 reciprocal scheme for non local part
 use partial core corrections
 calculate Harris-corrections to forces 
   (improved forces if not selfconsistent)
 use gradient corrections 
 use of overlap-Matrix (Vanderbilt PP)
 Gauss-broadening in eV      SIGMA  =   0.05


--------------------------------------------------------------------------------------------------------


  energy-cutoff  :      520.00
  volume of cell :      127.84
      direct lattice vectors                 reciprocal lattice vectors
     0.000000000  3.998357000  3.998357000    -0.125051365  0.125051365  0.125051365
     3.998357000  0.000000000  3.998357000     0.125051365 -0.125051365  0.125051365
     3.998357000  3.998357000  0.000000000     0.125051365  0.125051365 -0.125051365

  length of vectors
     5.654530697  5.654530697  5.654530697     0.216595317  0.216595317  0.216595317


 
 k-points in units of 2pi/SCALE and weight: KPOINTS                                 
   0.00000000  0.00000000  0.00000000       0.002
  -0.01563142  0.01563142  0.01563142       0.016
  -0.03126284  0.03126284  0.03126284       0.016
  -0.04689426  0.04689426  0.04689426       0.016
  -0.06252568  0.06252568  0.06252568       0.008
   0.00000000  0.00000000  0.03126284       0.012
  -0.01563142  0.01563142  0.04689426       0.047
  -0.03126284  0.03126284  0.06252568       0.047
  -0.04689426  0.04689426  0.07815710       0.047
   0.06252568 -0.06252568 -0.03126284       0.047
   0.04689426 -0.04689426 -0.01563142       0.047
   0.03126284 -0.03126284  0.00000000       0.023
   0.00000000  0.00000000  0.06252568       0.012
  -0.01563142  0.01563142  0.07815710       0.047
  -0.03126284  0.03126284  0.09378852       0.047
   0.07815710 -0.07815710 -0.01563142       0.047
   0.06252568 -0.06252568  0.00000000       0.023
   0.00000000  0.00000000  0.09378852       0.012
  -0.01563142  0.01563142  0.10941994       0.047
   0.09378852 -0.09378852  0.00000000       0.023
   0.00000000  0.00000000  0.12505136       0.006
   0.00000000  0.03126284  0.06252568       0.047
  -0.01563142  0.04689426  0.07815710       0.094
   0.09378852 -0.06252568 -0.03126284       0.047
   0.00000000  0.03126284  0.09378852       0.047
   0.10941994 -0.07815710 -0.01563142       0.094
   0.09378852 -0.06252568  0.00000000       0.047
   0.12505136 -0.09378852  0.00000000       0.023
   0.12505136 -0.06252568  0.00000000       0.012
 
 k-points in reciprocal lattice and weights: KPOINTS                                 
   0.00000000  0.00000000  0.00000000       0.002
   0.12500000  0.00000000  0.00000000       0.016
   0.25000000  0.00000000  0.00000000       0.016
   0.37500000  0.00000000  0.00000000       0.016
   0.50000000  0.00000000  0.00000000       0.008
   0.12500000  0.12500000  0.00000000       0.012
   0.25000000  0.12500000  0.00000000       0.047
   0.37500000  0.12500000  0.00000000       0.047
   0.50000000  0.12500000  0.00000000       0.047
  -0.37500000  0.12500000  0.00000000       0.047
  -0.25000000  0.12500000  0.00000000       0.047
  -0.12500000  0.12500000  0.00000000       0.023
   0.25000000  0.25000000  0.00000000       0.012
   0.37500000  0.25000000  0.00000000       0.047
   0.50000000  0.25000000  0.00000000       0.047
  -0.37500000  0.25000000  0.00000000       0.047
  -0.25000000  0.25000000  0.00000000       0.023
   0.37500000  0.37500000  0.00000000       0.012
   0.50000000  0.37500000  0.00000000       0.047
  -0.37500000  0.37500000  0.00000000       0.023
   0.50000000  0.50000000  0.00000000       0.006
   0.37500000  0.25000000  0.12500000       0.047
   0.50000000  0.25000000  0.12500000       0.094
  -0.37500000  0.25000000  0.12500000       0.047
   0.50000000  0.37500000  0.12500000       0.047
  -0.37500000  0.37500000  0.12500000       0.094
  -0.25000000  0.37500000  0.12500000       0.047
  -0.37500000  0.50000000  0.12500000       0.023
  -0.25000000  0.50000000  0.25000000       0.012
 
 position of ions in fractional coordinates (direct lattice) 
   0.25000019  0.25000019  0.25000019
   0.00000000  0.00000000  0.00000000
   0.50000038  0.50000038  0.50000038
   0.74999931  0.74999931  0.74999931
 
 position of ions in cartesian coordinates  (Angst):
   1.99918000  1.99918000  1.99918000
   0.00000000  0.00000000  0.00000000
   3.99836000  3.99836000  3.99836000
   5.99753000  5.99753000  5.99753000
 


--------------------------------------------------------------------------------------------------------


 k-point  1 :   0.0000 0.0000 0.0000  plane waves:    3479
 k-point  2 :   0.1250 0.0000 0.0000  plane waves:    3461
 k-point  3 :   0.2500 0.0000 0.0000  plane waves:    3437
 k-point  4 :   0.3750 0.0000 0.0000  plane waves:    3446
 k-point  5 :   0.5000 0.0000 0.0000  plane waves:    3444
 k-point  6 :   0.1250 0.1250 0.0000  plane waves:    3459
 k-point  7 :   0.2500 0.1250 0.0000  plane waves:    3457
 k-point  8 :   0.3750 0.1250 0.0000  plane waves:    3452
 k-point  9 :   0.5000 0.1250 0.0000  plane waves:    3446
 k-point 10 :  -0.3750 0.1250 0.0000  plane waves:    3443
 k-point 11 :  -0.2500 0.1250 0.0000  plane waves:    3445
 k-point 12 :  -0.1250 0.1250 0.0000  plane waves:    3451
 k-point 13 :   0.2500 0.2500 0.0000  plane waves:    3479
 k-point 14 :   0.3750 0.2500 0.0000  plane waves:    3450
 k-point 15 :   0.5000 0.2500 0.0000  plane waves:    3430
 k-point 16 :  -0.3750 0.2500 0.0000  plane waves:    3446
 k-point 17 :  -0.2500 0.2500 0.0000  plane waves:    3445
 k-point 18 :   0.3750 0.3750 0.0000  plane waves:    3439
 k-point 19 :   0.5000 0.3750 0.0000  plane waves:    3430
 k-point 20 :  -0.3750 0.3750 0.0000  plane waves:    3430
 k-point 21 :   0.5000 0.5000 0.0000  plane waves:    3442
 k-point 22 :   0.3750 0.2500 0.1250  plane waves:    3456
 k-point 23 :   0.5000 0.2500 0.1250  plane waves:    3446
 k-point 24 :  -0.3750 0.2500 0.1250  plane waves:    3442
 k-point 25 :   0.5000 0.3750 0.1250  plane waves:    3439
 k-point 26 :  -0.3750 0.3750 0.1250  plane waves:    3432
 k-point 27 :  -0.2500 0.3750 0.1250  plane waves:    3445
 k-point 28 :  -0.3750 0.5000 0.1250  plane waves:    3422
 k-point 29 :  -0.2500 0.5000 0.2500  plane waves:    3400

 maximum and minimum number of plane-waves per node :       511      478

 maximum number of plane-waves:      3479
 maximum index in each direction: 
   IXMAX=   10   IYMAX=   10   IZMAX=   10
   IXMIN=  -11   IYMIN=  -11   IZMIN=  -10


 parallel 3D FFT for wavefunctions:
    minimum data exchange during FFTs selected (reduces bandwidth)
 parallel 3D FFT for charge:
    minimum data exchange during FFTs selected (reduces bandwidth)


 total amount of memory used by VASP MPI-rank0    50993. kBytes
=======================================================================

   base      :      30000. kBytes
   nonl-proj :       6296. kBytes
   fftplans  :       3211. kBytes
   grid      :       5943. kBytes
   one-center:         15. kBytes
   wavefun   :       5528. kBytes
 
     INWAV:  cpu time    0.0000: real time    0.0000
 Broyden mixing: mesh for mixing (old mesh)
   NGX = 21   NGY = 21   NGZ = 21
  (NGX  = 84   NGY  = 84   NGZ  = 84)
  gives a total of   9261 points

 initial charge density was supplied:
 charge density of overlapping atoms calculated
 number of electron      38.0000000 magnetization 
 keeping initial charge density in first step


--------------------------------------------------------------------------------------------------------


 Maximum index for augmentation-charges         3727 (set IRDMAX)


--------------------------------------------------------------------------------------------------------


 First call to EWALD:  gamma=   0.352
 Maximum number of real-space cells 3x 3x 3
 Maximum number of reciprocal cells 3x 3x 3

    FEWALD:  cpu time    0.0016: real time    0.0016


--------------------------------------- Iteration      1(   1)  ---------------------------------------


    POTLOK:  cpu time    0.0514: real time    0.0536
    SETDIJ:  cpu time    0.0038: real time    0.0038
     EDDAV:  cpu time    0.2822: real time    0.2824
       DOS:  cpu time    0.0005: real time    0.0005
    --------------------------------------------
      LOOP:  cpu time    0.3380: real time    0.3404

 eigenvalue-minimisations  :  1350
 total energy-change (2. order) : 0.3748387E+03  (-0.1961523E+04)
 number of electron      38.0000000 magnetization 
 augmentation part       38.0000000 magnetization 

 Free energy of the ion-electron system (eV)
  ---------------------------------------------------
  alpha Z        PSCENC =       111.46983113
  Ewald energy   TEWEN  =     -2513.98178706
  -Hartree energ DENC   =     -1177.44443738
  -exchange      EXHF   =         0.00000000
  -V(xc)+E(xc)   XCENC  =       127.24542746
  PAW double counting   =      3185.16912008    -3328.20531600
  entropy T*S    EENTRO =        -0.00172549
  eigenvalues    EBANDS =      -183.19977552
  atomic energy  EATOM  =      4153.78731487
  Solvation  Ediel_sol  =         0.00000000
  ---------------------------------------------------
  free energy    TOTEN  =       374.83865208 eV

  energy without entropy =      374.84037757  energy(sigma->0) =      374.83951483


--------------------------------------------------------------------------------------------------------




--------------------------------------- Iteration      1(   2)  ---------------------------------------


     EDDAV:  cpu time    0.2830: real time    0.2855
       DOS:  cpu time    0.0005: real time    0.0005
    --------------------------------------------
      LOOP:  cpu time    0.2836: real time    0.2860

 eigenvalue-minimisations  :  1355
 total energy-change (2. order) :-0.3478576E+03  (-0.3437000E+03)
 number of electron      38.0000000 magnetization 
 augmentation part       38.0000000 magnetization 

 Free energy of the ion-electron system (eV)
  ---------------------------------------------------
  alpha Z        PSCENC =       111.46983113
  Ewald energy   TEWEN  =     -2513.98178706
  -Hartree energ DENC   =     -1177.44443738
  -exchange      EXHF   =         0.00000000
  -V(xc)+E(xc)   XCENC  =       127.24542746
  PAW double counting   =      3185.16912008    -3328.20531600
  entropy T*S    EENTRO =        -0.00215742
  eigenvalues    EBANDS =      -531.05691375
  atomic energy  EATOM  =      4153.78731487
  Solvation  Ediel_sol  =         0.00000000
  ---------------------------------------------------
  free energy    TOTEN  =        26.98108192 eV

  energy without entropy =       26.98323934  energy(sigma->0) =       26.98216063


--------------------------------------------------------------------------------------------------------




--------------------------------------- Iteration      1(   3)  ---------------------------------------


     EDDAV:  cpu time    0.3811: real time    0.3817
       DOS:  cpu time    0.0003: real time    0.0003
    --------------------------------------------
      LOOP:  cpu time    0.3814: real time    0.3820

 eigenvalue-minimisations  :  2133
 total energy-change (2. order) :-0.3539262E+02  (-0.3521277E+02)
 number of electron      38.0000000 magnetization 
 augmentation part       38.0000000 magnetization 

 Free energy of the ion-electron system (eV)
  ---------------------------------------------------
  alpha Z        PSCENC =       111.46983113
  Ewald energy   TEWEN  =     -2513.98178706
  -Hartree energ DENC   =     -1177.44443738
  -exchange      EXHF   =         0.00000000
  -V(xc)+E(xc)   XCENC  =       127.24542746
  PAW double counting   =      3185.16912008    -3328.20531600
  entropy T*S    EENTRO =        -0.00000000
  eigenvalues    EBANDS =      -566.45169176
  atomic energy  EATOM  =      4153.78731487
  Solvation  Ediel_sol  =         0.00000000
  ---------------------------------------------------
  free energy    TOTEN  =        -8.41153867 eV

  energy without entropy =       -8.41153867  energy(sigma->0) =       -8.41153867


--------------------------------------------------------------------------------------------------------




--------------------------------------- Iteration      1(   4)  ---------------------------------------


     EDDAV:  cpu time    0.3235: real time    0.3243
       DOS:  cpu time    0.0003: real time    0.0003
    --------------------------------------------
      LOOP:  cpu time    0.3239: real time    0.3246

 eigenvalue-minimisations  :  1713
 total energy-change (2. order) :-0.9272122E+00  (-0.9269107E+00)
 number of electron      38.0000000 magnetization 
 augmentation part       38.0000000 magnetization 

 Free energy of the ion-electron system (eV)
  ---------------------------------------------------
  alpha Z        PSCENC =       111.46983113
  Ewald energy   TEWEN  =     -2513.98178706
  -Hartree energ DENC   =     -1177.44443738
  -exchange      EXHF   =         0.00000000
  -V(xc)+E(xc)   XCENC  =       127.24542746
  PAW double counting   =      3185.16912008    -3328.20531600
  entropy T*S    EENTRO =        -0.00000000
  eigenvalues    EBANDS =      -567.37890401
  atomic energy  EATOM  =      4153.78731487
  Solvation  Ediel_sol  =         0.00000000
  ---------------------------------------------------
  free energy    TOTEN  =        -9.33875091 eV

  energy without entropy =       -9.33875091  energy(sigma->0) =       -9.33875091


--------------------------------------------------------------------------------------------------------




--------------------------------------- Iteration      1(   5)  ---------------------------------------


     EDDAV:  cpu time    0.4162: real time    0.4169
       DOS:  cpu time    0.0003: real time    0.0003
    CHARGE:  cpu time    0.0374: real time    0.0374
    MIXING:  cpu time    0.0029: real time    0.0030
    --------------------------------------------
      LOOP:  cpu time    0.4568: real time    0.4575

 eigenvalue-minimisations  :  2308
 total energy-change (2. order) :-0.3429918E-01  (-0.3429786E-01)
 number of electron      37.9999979 magnetization 
 augmentation part       14.5328314 magnetization 

 Broyden mixing:
  rms(total) = 0.36843E+00    rms(broyden)= 0.36842E+00
  rms(prec ) = 0.85536E+00
  weight for this iteration     100.00

 Free energy of the ion-electron system (eV)
  ---------------------------------------------------
  alpha Z        PSCENC =       111.46983113
  Ewald energy   TEWEN  =     -2513.98178706
  -Hartree energ DENC   =     -1177.44443738
  -exchange      EXHF   =         0.00000000
  -V(xc)+E(xc)   XCENC  =       127.24542746
  PAW double counting   =      3185.16912008    -3328.20531600
  entropy T*S    EENTRO =        -0.00000000
  eigenvalues    EBANDS =      -567.41320318
  atomic energy  EATOM  =      4153.78731487
  Solvation  Ediel_sol  =         0.00000000
  ---------------------------------------------------
  free energy    TOTEN  =        -9.37305009 eV

  energy without entropy =       -9.37305009  energy(sigma->0) =       -9.37305009


--------------------------------------------------------------------------------------------------------




--------------------------------------- Iteration      1(   6)  ---------------------------------------


    POTLOK:  cpu time    0.0516: real time    0.0520
    SETDIJ:  cpu time    0.0043: real time    0.0043
     EDDAV:  cpu time    0.3376: real time    0.3377
       DOS:  cpu time    0.0005: real time    0.0005
    CHARGE:  cpu time    0.0366: real time    0.0366
    MIXING:  cpu time    0.0030: real time    0.0030
    --------------------------------------------
      LOOP:  cpu time    0.4336: real time    0.4340

 eigenvalue-minimisations  :  1838
 total energy-change (2. order) : 0.4015355E+00  (-0.8226054E-01)
 number of electron      37.9999979 magnetization 
 augmentation part       14.5726695 magnetization 

 Broyden mixing:
  rms(total) = 0.24617E+00    rms(broyden)= 0.24617E+00
  rms(prec ) = 0.43618E+00
  weight for this iteration     100.00

 eigenvalues of (default mixing * dielectric matrix)
  average eigenvalue GAMMA=   2.2196
  2.2196

 Free energy of the ion-electron system (eV)
  ---------------------------------------------------
  alpha Z        PSCENC =       111.46983113
  Ewald energy   TEWEN  =     -2513.98178706
  -Hartree energ DENC   =     -1177.50843954
  -exchange      EXHF   =         0.00000000
  -V(xc)+E(xc)   XCENC  =       127.22709704
  PAW double counting   =      3258.51576067    -3403.77810545
  entropy T*S    EENTRO =        -0.00000796
  eigenvalues    EBANDS =      -564.70317831
  atomic energy  EATOM  =      4153.78731487
  Solvation  Ediel_sol  =         0.00000000
  ---------------------------------------------------
  free energy    TOTEN  =        -8.97151461 eV

  energy without entropy =       -8.97150664  energy(sigma->0) =       -8.97151062


--------------------------------------------------------------------------------------------------------




--------------------------------------- Iteration      1(   7)  ---------------------------------------


    POTLOK:  cpu time    0.0481: real time    0.0484
    SETDIJ:  cpu time    0.0052: real time    0.0052
     EDDAV:  cpu time    0.3422: real time    0.3423
       DOS:  cpu time    0.0005: real time    0.0005
    CHARGE:  cpu time    0.0361: real time    0.0361
    MIXING:  cpu time    0.0027: real time    0.0027
    --------------------------------------------
      LOOP:  cpu time    0.4348: real time    0.4352

 eigenvalue-minimisations  :  1795
 total energy-change (2. order) : 0.8183015E-01  (-0.5067353E-01)
 number of electron      37.9999979 magnetization 
 augmentation part       14.6118807 magnetization 

 Broyden mixing:
  rms(total) = 0.11602E+00    rms(broyden)= 0.11602E+00
  rms(prec ) = 0.14985E+00
  weight for this iteration     100.00

 eigenvalues of (default mixing * dielectric matrix)
  average eigenvalue GAMMA=   2.1805
  2.1805  2.1805

 Free energy of the ion-electron system (eV)
  ---------------------------------------------------
  alpha Z        PSCENC =       111.46983113
  Ewald energy   TEWEN  =     -2513.98178706
  -Hartree energ DENC   =     -1174.96819894
  -exchange      EXHF   =         0.00000000
  -V(xc)+E(xc)   XCENC  =       127.15681924
  PAW double counting   =      3314.26693590    -3460.97213375
  entropy T*S    EENTRO =        -0.00015455
  eigenvalues    EBANDS =      -565.64831130
  atomic energy  EATOM  =      4153.78731487
  Solvation  Ediel_sol  =         0.00000000
  ---------------------------------------------------
  free energy    TOTEN  =        -8.88968446 eV

  energy without entropy =       -8.88952991  energy(sigma->0) =       -8.88960718


--------------------------------------------------------------------------------------------------------




--------------------------------------- Iteration      1(   8)  ---------------------------------------


    POTLOK:  cpu time    0.0493: real time    0.0498
    SETDIJ:  cpu time    0.0037: real time    0.0037
     EDDAV:  cpu time    0.3368: real time    0.3369
       DOS:  cpu time    0.0006: real time    0.0006
    CHARGE:  cpu time    0.0364: real time    0.0364
    MIXING:  cpu time    0.0027: real time    0.0027
    --------------------------------------------
      LOOP:  cpu time    0.4294: real time    0.4300

 eigenvalue-minimisations  :  1598
 total energy-change (2. order) :-0.3818338E-02  (-0.6153018E-02)
 number of electron      37.9999979 magnetization 
 augmentation part       14.6065202 magnetization 

 Broyden mixing:
  rms(total) = 0.18719E-01    rms(broyden)= 0.18718E-01
  rms(prec ) = 0.42824E-01
  weight for this iteration     100.00

 eigenvalues of (default mixing * dielectric matrix)
  average eigenvalue GAMMA=   1.8831
  2.5451  1.5521  1.5521

 Free energy of the ion-electron system (eV)
  ---------------------------------------------------
  alpha Z        PSCENC =       111.46983113
  Ewald energy   TEWEN  =     -2513.98178706
  -Hartree energ DENC   =     -1172.50455906
  -exchange      EXHF   =         0.00000000
  -V(xc)+E(xc)   XCENC  =       127.11348933
  PAW double counting   =      3318.05177695    -3464.08295320
  entropy T*S    EENTRO =        -0.00016658
  eigenvalues    EBANDS =      -568.74644918
  atomic energy  EATOM  =      4153.78731487
  Solvation  Ediel_sol  =         0.00000000
  ---------------------------------------------------
  free energy    TOTEN  =        -8.89350280 eV

  energy without entropy =       -8.89333622  energy(sigma->0) =       -8.89341951


--------------------------------------------------------------------------------------------------------




--------------------------------------- Iteration      1(   9)  ---------------------------------------


    POTLOK:  cpu time    0.0500: real time    0.0504
    SETDIJ:  cpu time    0.0037: real time    0.0037
     EDDAV:  cpu time    0.3207: real time    0.3214
       DOS:  cpu time    0.0006: real time    0.0006
    CHARGE:  cpu time    0.0374: real time    0.0374
    MIXING:  cpu time    0.0032: real time    0.0031
    --------------------------------------------
      LOOP:  cpu time    0.4155: real time    0.4166

 eigenvalue-minimisations  :  1579
 total energy-change (2. order) : 0.5500991E-03  (-0.1508101E-02)
 number of electron      37.9999979 magnetization 
 augmentation part       14.6087738 magnetization 

 Broyden mixing:
  rms(total) = 0.10351E-01    rms(broyden)= 0.10351E-01
  rms(prec ) = 0.23605E-01
  weight for this iteration     100.00

 eigenvalues of (default mixing * dielectric matrix)
  average eigenvalue GAMMA=   1.8184
  2.8209  1.1985  1.1985  2.0557

 Free energy of the ion-electron system (eV)
  ---------------------------------------------------
  alpha Z        PSCENC =       111.46983113
  Ewald energy   TEWEN  =     -2513.98178706
  -Hartree energ DENC   =     -1173.34792143
  -exchange      EXHF   =         0.00000000
  -V(xc)+E(xc)   XCENC  =       127.14934518
  PAW double counting   =      3329.32209206    -3475.33998094
  entropy T*S    EENTRO =        -0.00015429
  eigenvalues    EBANDS =      -567.95169221
  atomic energy  EATOM  =      4153.78731487
  Solvation  Ediel_sol  =         0.00000000
  ---------------------------------------------------
  free energy    TOTEN  =        -8.89295270 eV

  energy without entropy =       -8.89279841  energy(sigma->0) =       -8.89287555


--------------------------------------------------------------------------------------------------------




--------------------------------------- Iteration      1(  10)  ---------------------------------------


    POTLOK:  cpu time    0.0522: real time    0.0526
    SETDIJ:  cpu time    0.0042: real time    0.0042
     EDDAV:  cpu time    0.3397: real time    0.3398
       DOS:  cpu time    0.0006: real time    0.0006
    CHARGE:  cpu time    0.0361: real time    0.0361
    MIXING:  cpu time    0.0028: real time    0.0028
    --------------------------------------------
      LOOP:  cpu time    0.4356: real time    0.4361

 eigenvalue-minimisations  :  1809
 total energy-change (2. order) : 0.2721112E-03  (-0.2333322E-03)
 number of electron      37.9999979 magnetization 
 augmentation part       14.6071249 magnetization 

 Broyden mixing:
  rms(total) = 0.16161E-02    rms(broyden)= 0.16160E-02
  rms(prec ) = 0.23811E-02
  weight for this iteration     100.00

 eigenvalues of (default mixing * dielectric matrix)
  average eigenvalue GAMMA=   1.8691
  2.7276  2.3680  1.8459  1.1300  1.2738

 Free energy of the ion-electron system (eV)
  ---------------------------------------------------
  alpha Z        PSCENC =       111.46983113
  Ewald energy   TEWEN  =     -2513.98178706
  -Hartree energ DENC   =     -1173.25267816
  -exchange      EXHF   =         0.00000000
  -V(xc)+E(xc)   XCENC  =       127.15038645
  PAW double counting   =      3327.67720970    -3473.50559762
  entropy T*S    EENTRO =        -0.00015915
  eigenvalues    EBANDS =      -568.23720075
  atomic energy  EATOM  =      4153.78731487
  Solvation  Ediel_sol  =         0.00000000
  ---------------------------------------------------
  free energy    TOTEN  =        -8.89268059 eV

  energy without entropy =       -8.89252144  energy(sigma->0) =       -8.89260101


--------------------------------------------------------------------------------------------------------




--------------------------------------- Iteration      1(  11)  ---------------------------------------


    POTLOK:  cpu time    0.0501: real time    0.0504
    SETDIJ:  cpu time    0.0037: real time    0.0037
     EDDAV:  cpu time    0.2765: real time    0.2765
       DOS:  cpu time    0.0005: real time    0.0005
    CHARGE:  cpu time    0.0360: real time    0.0360
    MIXING:  cpu time    0.0028: real time    0.0028
    --------------------------------------------
      LOOP:  cpu time    0.3696: real time    0.3700

 eigenvalue-minimisations  :  1365
 total energy-change (2. order) :-0.1506932E-04  (-0.1015780E-04)
 number of electron      37.9999979 magnetization 
 augmentation part       14.6071418 magnetization 

 Broyden mixing:
  rms(total) = 0.10713E-02    rms(broyden)= 0.10713E-02
  rms(prec ) = 0.23628E-02
  weight for this iteration     100.00

 eigenvalues of (default mixing * dielectric matrix)
  average eigenvalue GAMMA=   1.7821
  2.8206  2.6023  2.0653  1.1688  1.1688  0.8667

 Free energy of the ion-electron system (eV)
  ---------------------------------------------------
  alpha Z        PSCENC =       111.46983113
  Ewald energy   TEWEN  =     -2513.98178706
  -Hartree energ DENC   =     -1173.18893655
  -exchange      EXHF   =         0.00000000
  -V(xc)+E(xc)   XCENC  =       127.14847731
  PAW double counting   =      3328.69389194    -3474.51812881
  entropy T*S    EENTRO =        -0.00015944
  eigenvalues    EBANDS =      -568.30319904
  atomic energy  EATOM  =      4153.78731487
  Solvation  Ediel_sol  =         0.00000000
  ---------------------------------------------------
  free energy    TOTEN  =        -8.89269565 eV

  energy without entropy =       -8.89253622  energy(sigma->0) =       -8.89261594


--------------------------------------------------------------------------------------------------------




--------------------------------------- Iteration      1(  12)  ---------------------------------------


    POTLOK:  cpu time    0.0486: real time    0.0490
    SETDIJ:  cpu time    0.0047: real time    0.0047
     EDDAV:  cpu time    0.2634: real time    0.2634
       DOS:  cpu time    0.0005: real time    0.0005
    --------------------------------------------
      LOOP:  cpu time    0.3173: real time    0.3176

 eigenvalue-minimisations  :  1161
 total energy-change (2. order) : 0.2955075E-05  (-0.2339148E-05)
 number of electron      37.9999979 magnetization 
 augmentation part       14.6071418 magnetization 

 Free energy of the ion-electron system (eV)
  ---------------------------------------------------
  alpha Z        PSCENC =       111.46983113
  Ewald energy   TEWEN  =     -2513.98178706
  -Hartree energ DENC   =     -1173.21041455
  -exchange      EXHF   =         0.00000000
  -V(xc)+E(xc)   XCENC  =       127.14913351
  PAW double counting   =      3329.16705853    -3475.00398801
  entropy T*S    EENTRO =        -0.00015895
  eigenvalues    EBANDS =      -568.26968216
  atomic energy  EATOM  =      4153.78731487
  Solvation  Ediel_sol  =         0.00000000
  ---------------------------------------------------
  free energy    TOTEN  =        -8.89269270 eV

  energy without entropy =       -8.89253375  energy(sigma->0) =       -8.89261322


--------------------------------------------------------------------------------------------------------




 average (electrostatic) potential at core
  the test charge radii are     1.0856  0.9254  1.1097
  (the norm of the test charge is              1.0000)
       1-107.0739       2 -47.9257       3 -47.9258       4 -37.6450
 
 
 
 E-fermi :   2.4136     XC(G=0):  -8.1186     alpha+bet : -8.1156


 k-point     1 :       0.0000    0.0000    0.0000
  band No.  band energies     occupation 
      1     -25.3593      2.00000
      2     -22.1287      2.00000
      3     -22.1287      2.00000
      4     -22.1287      2.00000
      5     -22.1206      2.00000
      6     -22.1206      2.00000
      7     -22.1206      2.00000
      8     -18.8740      2.00000
      9     -18.8740      2.00000
     10     -18.8740      2.00000
     11     -18.8727      2.00000
     12     -18.8727      2.00000
     13      -9.5115      2.00000
     14      -9.5115      2.00000
     15      -9.5115      2.00000
     16      -7.1116      2.00000
     17       2.3475      1.93842
     18       2.3973      1.35474
     19       2.3973      1.35474
     20       2.3973      1.35452
     21       4.7699      0.00000
     22       4.7699      0.00000
     23       4.7699      0.00000

 k-point     2 :       0.1250    0.0000    0.0000
  band No.  band energies     occupation 
      1     -25.3592      2.00000
      2     -22.1284      2.00000
      3     -22.1284      2.00000
      4     -22.1284      2.00000
      5     -22.1209      2.00000
      6     -22.1209      2.00000
      7     -22.1208      2.00000
      8     -18.8741      2.00000
      9     -18.8740      2.00000
     10     -18.8740      2.00000
     11     -18.8727      2.00000
     12     -18.8727      2.00000
     13      -9.5252      2.00000
     14      -9.5117      2.00000
     15      -9.5117      2.00000
     16      -7.0744      2.00000
     17       1.4714      2.00000
     18       2.2796      1.99985
     19       2.2796      1.99985
     20       3.2346      0.00000
     21       4.8917      0.00000
     22       4.9343      0.00000
     23       4.9343      0.00000

 k-point     3 :       0.2500    0.0000    0.0000
  band No.  band energies     occupation 
      1     -25.3591      2.00000
      2     -22.1276      2.00000
      3     -22.1276      2.00000
      4     -22.1275      2.00000
      5     -22.1218      2.00000
      6     -22.1218      2.00000
      7     -22.1215      2.00000
      8     -18.8743      2.00000
      9     -18.8739      2.00000
     10     -18.8739      2.00000
     11     -18.8727      2.00000
     12     -18.8727      2.00000
     13      -9.5567      2.00000
     14      -9.5123      2.00000
     15      -9.5123      2.00000
     16      -6.9849      2.00000
     17       0.7301      2.00000
     18       2.0429      2.00000
     19       2.0429      2.00000
     20       3.6905      0.00000
     21       5.3397      0.00000
     22       5.3397      0.00000
     23       5.5717      0.00000

 k-point     4 :       0.3750    0.0000    0.0000
  band No.  band energies     occupation 
      1     -25.3589      2.00000
      2     -22.1263      2.00000
      3     -22.1263      2.00000
      4     -22.1261      2.00000
      5     -22.1231      2.00000
      6     -22.1231      2.00000
      7     -22.1226      2.00000
      8     -18.8745      2.00000
      9     -18.8739      2.00000
     10     -18.8739      2.00000
     11     -18.8727      2.00000
     12     -18.8727      2.00000
     13      -9.5862      2.00000
     14      -9.5129      2.00000
     15      -9.5129      2.00000
     16      -6.8957      2.00000
     17       0.2427      2.00000
     18       1.8487      2.00000
     19       1.8487      2.00000
     20       3.8655      0.00000
     21       5.8745      0.00000
     22       5.8745      0.00000
     23       6.4857      0.00000

 k-point     5 :       0.5000    0.0000    0.0000
  band No.  band energies     occupation 
      1     -25.3589      2.00000
      2     -22.1250      2.00000
      3     -22.1250      2.00000
      4     -22.1249      2.00000
      5     -22.1245      2.00000
      6     -22.1245      2.00000
      7     -22.1236      2.00000
      8     -18.8746      2.00000
      9     -18.8738      2.00000
     10     -18.8738      2.00000
     11     -18.8727      2.00000
     12     -18.8727      2.00000
     13      -9.5979      2.00000
     14      -9.5131      2.00000
     15      -9.5131      2.00000
     16      -6.8587      2.00000
     17       0.0722      2.00000
     18       1.7768      2.00000
     19       1.7768      2.00000
     20       3.9408      0.00000
     21       6.2912      0.00000
     22       6.2913      0.00000
     23       6.5043      0.00000

 k-point     6 :       0.1250    0.1250    0.0000
  band No.  band energies     occupation 
      1     -25.3592      2.00000
      2     -22.1289      2.00000
      3     -22.1289      2.00000
      4     -22.1273      2.00000
      5     -22.1219      2.00000
      6     -22.1205      2.00000
      7     -22.1205      2.00000
      8     -18.8742      2.00000
      9     -18.8739      2.00000
     10     -18.8739      2.00000
     11     -18.8727      2.00000
     12     -18.8726      2.00000
     13      -9.5250      2.00000
     14      -9.5137      2.00000
     15      -9.5137      2.00000
     16      -7.0651      2.00000
     17       1.3803      2.00000
     18       2.2354      2.00000
     19       2.2354      2.00000
     20       3.3900      0.00000
     21       4.4760      0.00000
     22       5.1941      0.00000
     23       5.1941      0.00000

 k-point     7 :       0.2500    0.1250    0.0000
  band No.  band energies     occupation 
      1     -25.3591      2.00000
      2     -22.1287      2.00000
      3     -22.1286      2.00000
      4     -22.1257      2.00000
      5     -22.1233      2.00000
      6     -22.1207      2.00000
      7     -22.1207      2.00000
      8     -18.8743      2.00000
      9     -18.8739      2.00000
     10     -18.8739      2.00000
     11     -18.8727      2.00000
     12     -18.8726      2.00000
     13      -9.5467      2.00000
     14      -9.5156      2.00000
     15      -9.5143      2.00000
     16      -7.0007      2.00000
     17       0.8706      2.00000
     18       2.0051      2.00000
     19       2.0549      2.00000
     20       3.8545      0.00000
     21       4.5245      0.00000
     22       5.6400      0.00000
     23       5.6938      0.00000

 k-point     8 :       0.3750    0.1250    0.0000
  band No.  band energies     occupation 
      1     -25.3590      2.00000
      2     -22.1279      2.00000
      3     -22.1278      2.00000
      4     -22.1249      2.00000
      5     -22.1240      2.00000
      6     -22.1216      2.00000
      7     -22.1214      2.00000
      8     -18.8745      2.00000
      9     -18.8739      2.00000
     10     -18.8738      2.00000
     11     -18.8727      2.00000
     12     -18.8726      2.00000
     13      -9.5736      2.00000
     14      -9.5162      2.00000
     15      -9.5157      2.00000
     16      -6.9196      2.00000
     17       0.4239      2.00000
     18       1.7335      2.00000
     19       1.8692      2.00000
     20       4.0591      0.00000
     21       5.1640      0.00000
     22       6.1141      0.00000
     23       6.2574      0.00000

 k-point     9 :       0.5000    0.1250    0.0000
  band No.  band energies     occupation 
      1     -25.3589      2.00000
      2     -22.1269      2.00000
      3     -22.1266      2.00000
      4     -22.1260      2.00000
      5     -22.1228      2.00000
      6     -22.1227      2.00000
      7     -22.1224      2.00000
      8     -18.8745      2.00000
      9     -18.8739      2.00000
     10     -18.8738      2.00000
     11     -18.8726      2.00000
     12     -18.8726      2.00000
     13      -9.5893      2.00000
     14      -9.5182      2.00000
     15      -9.5152      2.00000
     16      -6.8688      2.00000
     17       0.1947      2.00000
     18       1.5780      2.00000
     19       1.7691      2.00000
     20       4.2256      0.00000
     21       5.5878      0.00000
     22       6.4248      0.00000
     23       6.5006      0.00000

 k-point    10 :      -0.3750    0.1250    0.0000
  band No.  band energies     occupation 
      1     -25.3589      2.00000
      2     -22.1280      2.00000
      3     -22.1251      2.00000
      4     -22.1248      2.00000
      5     -22.1244      2.00000
      6     -22.1240      2.00000
      7     -22.1212      2.00000
      8     -18.8745      2.00000
      9     -18.8739      2.00000
     10     -18.8738      2.00000
     11     -18.8727      2.00000
     12     -18.8726      2.00000
     13      -9.5863      2.00000
     14      -9.5201      2.00000
     15      -9.5132      2.00000
     16      -6.8779      2.00000
     17       0.2385      2.00000
     18       1.5802      2.00000
     19       1.7929      2.00000
     20       4.2612      0.00000
     21       5.6963      0.00000
     22       5.9410      0.00000
     23       6.5025      0.00000

 k-point    11 :      -0.2500    0.1250    0.0000
  band No.  band energies     occupation 
      1     -25.3590      2.00000
      2     -22.1288      2.00000
      3     -22.1260      2.00000
      4     -22.1260      2.00000
      5     -22.1234      2.00000
      6     -22.1230      2.00000
      7     -22.1205      2.00000
      8     -18.8744      2.00000
      9     -18.8739      2.00000
     10     -18.8739      2.00000
     11     -18.8727      2.00000
     12     -18.8726      2.00000
     13      -9.5664      2.00000
     14      -9.5197      2.00000
     15      -9.5113      2.00000
     16      -6.9415      2.00000
     17       0.5428      2.00000
     18       1.7441      2.00000
     19       1.9360      2.00000
     20       4.1323      0.00000
     21       5.3708      0.00000
     22       5.3854      0.00000
     23       5.9836      0.00000

 k-point    12 :      -0.1250    0.1250    0.0000
  band No.  band energies     occupation 
      1     -25.3591      2.00000
      2     -22.1290      2.00000
      3     -22.1274      2.00000
      4     -22.1274      2.00000
      5     -22.1219      2.00000
      6     -22.1217      2.00000
      7     -22.1204      2.00000
      8     -18.8742      2.00000
      9     -18.8740      2.00000
     10     -18.8739      2.00000
     11     -18.8727      2.00000
     12     -18.8726      2.00000
     13      -9.5409      2.00000
     14      -9.5163      2.00000
     15      -9.5108      2.00000
     16      -7.0229      2.00000
     17       1.0232      2.00000
     18       2.0380      2.00000
     19       2.1407      2.00000
     20       3.7411      0.00000
     21       4.8605      0.00000
     22       5.0134      0.00000
     23       5.5449      0.00000

 k-point    13 :       0.2500    0.2500    0.0000
  band No.  band energies     occupation 
      1     -25.3590      2.00000
      2     -22.1292      2.00000
      3     -22.1292      2.00000
      4     -22.1250      2.00000
      5     -22.1238      2.00000
      6     -22.1203      2.00000
      7     -22.1202      2.00000
      8     -18.8746      2.00000
      9     -18.8738      2.00000
     10     -18.8738      2.00000
     11     -18.8727      2.00000
     12     -18.8725      2.00000
     13      -9.5477      2.00000
     14      -9.5192      2.00000
     15      -9.5192      2.00000
     16      -6.9798      2.00000
     17       0.7607      2.00000
     18       1.9673      2.00000
     19       1.9673      2.00000
     20       3.9758      0.00000
     21       4.0782      0.00000
     22       6.2075      0.00000
     23       6.2075      0.00000

 k-point    14 :       0.3750    0.2500    0.0000
  band No.  band energies     occupation 
      1     -25.3589      2.00000
      2     -22.1290      2.00000
      3     -22.1290      2.00000
      4     -22.1266      2.00000
      5     -22.1219      2.00000
      6     -22.1204      2.00000
      7     -22.1204      2.00000
      8     -18.8747      2.00000
      9     -18.8738      2.00000
     10     -18.8737      2.00000
     11     -18.8727      2.00000
     12     -18.8724      2.00000
     13      -9.5601      2.00000
     14      -9.5225      2.00000
     15      -9.5211      2.00000
     16      -6.9353      2.00000
     17       0.5799      2.00000
     18       1.6878      2.00000
     19       1.8427      2.00000
     20       3.9770      0.00000
     21       4.4914      0.00000
     22       6.2956      0.00000
     23       6.6002      0.00000

 k-point    15 :       0.5000    0.2500    0.0000
  band No.  band energies     occupation 
      1     -25.3589      2.00000
      2     -22.1287      2.00000
      3     -22.1282      2.00000
      4     -22.1274      2.00000
      5     -22.1213      2.00000
      6     -22.1212      2.00000
      7     -22.1205      2.00000
      8     -18.8746      2.00000
      9     -18.8739      2.00000
     10     -18.8737      2.00000
     11     -18.8726      2.00000
     12     -18.8725      2.00000
     13      -9.5696      2.00000
     14      -9.5292      2.00000
     15      -9.5201      2.00000
     16      -6.8932      2.00000
     17       0.4872      2.00000
     18       1.3143      2.00000
     19       1.7513      2.00000
     20       4.2113      0.00000
     21       5.3309      0.00000
     22       5.8833      0.00000
     23       6.7914      0.00000

 k-point    16 :      -0.3750    0.2500    0.0000
  band No.  band energies     occupation 
      1     -25.3588      2.00000
      2     -22.1293      2.00000
      3     -22.1268      2.00000
      4     -22.1262      2.00000
      5     -22.1226      2.00000
      6     -22.1225      2.00000
      7     -22.1198      2.00000
      8     -18.8744      2.00000
      9     -18.8741      2.00000
     10     -18.8737      2.00000
     11     -18.8726      2.00000
     12     -18.8725      2.00000
     13      -9.5718      2.00000
     14      -9.5348      2.00000
     15      -9.5169      2.00000
     16      -6.8773      2.00000
     17       0.4696      2.00000
     18       1.1473      2.00000
     19       1.7371      2.00000
     20       4.6202      0.00000
     21       5.5165      0.00000
     22       6.2966      0.00000
     23       6.3573      0.00000

 k-point    17 :      -0.2500    0.2500    0.0000
  band No.  band energies     occupation 
      1     -25.3589      2.00000
      2     -22.1294      2.00000
      3     -22.1251      2.00000
      4     -22.1246      2.00000
      5     -22.1243      2.00000
      6     -22.1242      2.00000
      7     -22.1198      2.00000
      8     -18.8743      2.00000
      9     -18.8741      2.00000
     10     -18.8738      2.00000
     11     -18.8727      2.00000
     12     -18.8725      2.00000
     13      -9.5707      2.00000
     14      -9.5309      2.00000
     15      -9.5132      2.00000
     16      -6.8969      2.00000
     17       0.4651      2.00000
     18       1.3307      2.00000
     19       1.8094      2.00000
     20       4.8157      0.00000
     21       5.5474      0.00000
     22       5.5926      0.00000
     23       5.7352      0.00000

 k-point    18 :       0.3750    0.3750    0.0000
  band No.  band energies     occupation 
      1     -25.3589      2.00000
      2     -22.1295      2.00000
      3     -22.1295      2.00000
      4     -22.1281      2.00000
      5     -22.1202      2.00000
      6     -22.1200      2.00000
      7     -22.1200      2.00000
      8     -18.8749      2.00000
      9     -18.8736      2.00000
     10     -18.8736      2.00000
     11     -18.8726      2.00000
     12     -18.8723      2.00000
     13      -9.5580      2.00000
     14      -9.5247      2.00000
     15      -9.5247      2.00000
     16      -6.9341      2.00000
     17       0.5873      2.00000
     18       1.7870      2.00000
     19       1.7870      2.00000
     20       3.6107      0.00000
     21       4.1849      0.00000
     22       6.7191      0.00000
     23       7.0159      0.00000

 k-point    19 :       0.5000    0.3750    0.0000
  band No.  band energies     occupation 
      1     -25.3588      2.00000
      2     -22.1296      2.00000
      3     -22.1293      2.00000
      4     -22.1287      2.00000
      5     -22.1202      2.00000
      6     -22.1202      2.00000
      7     -22.1192      2.00000
      8     -18.8750      2.00000
      9     -18.8737      2.00000
     10     -18.8736      2.00000
     11     -18.8725      2.00000
     12     -18.8723      2.00000
     13      -9.5579      2.00000
     14      -9.5318      2.00000
     15      -9.5250      2.00000
     16      -6.9173      2.00000
     17       0.6269      2.00000
     18       1.4606      2.00000
     19       1.7345      2.00000
     20       3.7560      0.00000
     21       4.4214      0.00000
     22       6.6939      0.00000
     23       7.2192      0.00000

 k-point    20 :      -0.3750    0.3750    0.0000
  band No.  band energies     occupation 
      1     -25.3588      2.00000
      2     -22.1298      2.00000
      3     -22.1283      2.00000
      4     -22.1277      2.00000
      5     -22.1212      2.00000
      6     -22.1211      2.00000
      7     -22.1191      2.00000
      8     -18.8747      2.00000
      9     -18.8739      2.00000
     10     -18.8736      2.00000
     11     -18.8724      2.00000
     12     -18.8724      2.00000
     13      -9.5499      2.00000
     14      -9.5497      2.00000
     15      -9.5218      2.00000
     16      -6.8939      2.00000
     17       0.7955      2.00000
     18       0.9270      2.00000
     19       1.7139      2.00000
     20       4.1283      0.00000
     21       5.3027      0.00000
     22       6.3802      0.00000
     23       6.7596      0.00000

 k-point    21 :       0.5000    0.5000    0.0000
  band No.  band energies     occupation 
      1     -25.3588      2.00000
      2     -22.1296      2.00000
      3     -22.1296      2.00000
      4     -22.1294      2.00000
      5     -22.1199      2.00000
      6     -22.1199      2.00000
      7     -22.1188      2.00000
      8     -18.8751      2.00000
      9     -18.8736      2.00000
     10     -18.8736      2.00000
     11     -18.8724      2.00000
     12     -18.8723      2.00000
     13      -9.5588      2.00000
     14      -9.5271      2.00000
     15      -9.5271      2.00000
     16      -6.9272      2.00000
     17       0.6083      2.00000
     18       1.7279      2.00000
     19       1.7279      2.00000
     20       3.4817      0.00000
     21       4.0232      0.00000
[...]
     14      -9.7619      2.00000
     15      -9.7619      2.00000
     16      -7.1268      2.00000
     17       0.4105      2.00000
     18       1.5808      2.00000
     19       1.5808      2.00000
     20       3.3852      0.00000
     21       3.8694      0.00000
     22       6.3409      0.00000
     23       6.7612      0.00000

 k-point    19 :       0.5000    0.3750    0.0000
  band No.  band energies     occupation 
      1     -25.6064      2.00000
      2     -22.3848      2.00000
      3     -22.3845      2.00000
      4     -22.3841      2.00000
      5     -22.3769      2.00000
      6     -22.3769      2.00000
      7     -22.3761      2.00000
      8     -19.1108      2.00000
      9     -19.1097      2.00000
     10     -19.1097      2.00000
     11     -19.1087      2.00000
     12     -19.1085      2.00000
     13      -9.7894      2.00000
     14      -9.7678      2.00000
     15      -9.7622      2.00000
     16      -7.1115      2.00000
     17       0.4477      2.00000
     18       1.2660      2.00000
     19       1.5319      2.00000
     20       3.5170      0.00000
     21       4.1062      0.00000
     22       6.3325      0.00000
     23       6.9379      0.00000

 k-point    20 :      -0.3750    0.3750    0.0000
  band No.  band energies     occupation 
      1     -25.6063      2.00000
      2     -22.3850      2.00000
      3     -22.3837      2.00000
      4     -22.3833      2.00000
      5     -22.3777      2.00000
      6     -22.3777      2.00000
      7     -22.3760      2.00000
      8     -19.1106      2.00000
      9     -19.1099      2.00000
     10     -19.1097      2.00000
     11     -19.1086      2.00000
     12     -19.1086      2.00000
     13      -9.7828      2.00000
     14      -9.7823      2.00000
     15      -9.7595      2.00000
     16      -7.0923      2.00000
     17       0.6124      2.00000
     18       0.7524      2.00000
     19       1.5189      2.00000
     20       3.8590      0.00000
     21       4.9769      0.00000
     22       6.0312      0.00000
     23       6.4002      0.00000

 k-point    21 :       0.5000    0.5000    0.0000
  band No.  band energies     occupation 
      1     -25.6064      2.00000
      2     -22.3848      2.00000
      3     -22.3848      2.00000
      4     -22.3847      2.00000
      5     -22.3766      2.00000
      6     -22.3766      2.00000
      7     -22.3757      2.00000
      8     -19.1109      2.00000
      9     -19.1097      2.00000
     10     -19.1097      2.00000
     11     -19.1086      2.00000
     12     -19.1085      2.00000
     13      -9.7904      2.00000
     14      -9.7639      2.00000
     15      -9.7639      2.00000
     16      -7.1190      2.00000
     17       0.4270      2.00000
     18       1.5219      2.00000
     19       1.5219      2.00000
     20       3.2586      0.00000
     21       3.7166      0.00000
     22       6.8459      0.00000
     23       7.0863      0.00000

 k-point    22 :       0.3750    0.2500    0.1250
  band No.  band energies     occupation 
      1     -25.6065      2.00000
      2     -22.3845      2.00000
      3     -22.3833      2.00000
      4     -22.3810      2.00000
      5     -22.3800      2.00000
      6     -22.3781      2.00000
      7     -22.3768      2.00000
      8     -19.1104      2.00000
      9     -19.1099      2.00000
     10     -19.1099      2.00000
     11     -19.1089      2.00000
     12     -19.1087      2.00000
     13      -9.7898      2.00000
     14      -9.7601      2.00000
     15      -9.7534      2.00000
     16      -7.1418      2.00000
     17       0.4440      2.00000
     18       1.5160      2.00000
     19       1.7030      2.00000
     20       4.0260      0.00000
     21       4.2380      0.00000
     22       5.6924      0.00000
     23       5.7290      0.00000

 k-point    23 :       0.5000    0.2500    0.1250
  band No.  band energies     occupation 
      1     -25.6064      2.00000
      2     -22.3844      2.00000
      3     -22.3824      2.00000
      4     -22.3820      2.00000
      5     -22.3793      2.00000
      6     -22.3786      2.00000
      7     -22.3769      2.00000
      8     -19.1104      2.00000
      9     -19.1100      2.00000
     10     -19.1098      2.00000
     11     -19.1088      2.00000
     12     -19.1087      2.00000
     13      -9.8002      2.00000
     14      -9.7639      2.00000
     15      -9.7553      2.00000
     16      -7.0966      2.00000
     17       0.2790      2.00000
     18       1.2280      2.00000
     19       1.5557      2.00000
     20       4.2418      0.00000
     21       4.9058      0.00000
     22       5.3894      0.00000
     23       6.2246      0.00000

 k-point    24 :      -0.3750    0.2500    0.1250
  band No.  band energies     occupation 
      1     -25.6064      2.00000
      2     -22.3841      2.00000
      3     -22.3831      2.00000
      4     -22.3808      2.00000
      5     -22.3805      2.00000
      6     -22.3775      2.00000
      7     -22.3775      2.00000
      8     -19.1104      2.00000
      9     -19.1101      2.00000
     10     -19.1098      2.00000
     11     -19.1087      2.00000
     12     -19.1087      2.00000
     13      -9.8046      2.00000
     14      -9.7647      2.00000
     15      -9.7567      2.00000
     16      -7.0780      2.00000
     17       0.2212      2.00000
     18       1.1183      2.00000
     19       1.4981      2.00000
     20       4.3680      0.00000
     21       4.9337      0.00000
     22       5.9064      0.00000
     23       6.1295      0.00000

 k-point    25 :       0.5000    0.3750    0.1250
  band No.  band energies     occupation 
      1     -25.6064      2.00000
      2     -22.3849      2.00000
      3     -22.3835      2.00000
      4     -22.3835      2.00000
      5     -22.3779      2.00000
      6     -22.3771      2.00000
      7     -22.3766      2.00000
      8     -19.1106      2.00000
      9     -19.1099      2.00000
     10     -19.1097      2.00000
     11     -19.1087      2.00000
     12     -19.1086      2.00000
     13      -9.7915      2.00000
     14      -9.7655      2.00000
     15      -9.7614      2.00000
     16      -7.1084      2.00000
     17       0.4118      2.00000
     18       1.2999      2.00000
     19       1.4386      2.00000
     20       3.9247      0.00000
     21       4.3435      0.00000
     22       5.7173      0.00000
     23       6.8526      0.00000

 k-point    26 :      -0.3750    0.3750    0.1250
  band No.  band energies     occupation 
      1     -25.6064      2.00000
      2     -22.3851      2.00000
      3     -22.3839      2.00000
      4     -22.3823      2.00000
      5     -22.3792      2.00000
      6     -22.3767      2.00000
      7     -22.3763      2.00000
      8     -19.1105      2.00000
      9     -19.1100      2.00000
     10     -19.1097      2.00000
     11     -19.1087      2.00000
     12     -19.1086      2.00000
     13      -9.7890      2.00000
     14      -9.7731      2.00000
     15      -9.7627      2.00000
     16      -7.0903      2.00000
     17       0.5216      2.00000
     18       0.9274      2.00000
     19       1.3522      2.00000
     20       4.2494      0.00000
     21       5.0375      0.00000
     22       5.4105      0.00000
     23       6.1543      0.00000

 k-point    27 :      -0.2500    0.3750    0.1250
  band No.  band energies     occupation 
      1     -25.6064      2.00000
      2     -22.3850      2.00000
      3     -22.3834      2.00000
      4     -22.3808      2.00000
      5     -22.3806      2.00000
      6     -22.3774      2.00000
      7     -22.3763      2.00000
      8     -19.1103      2.00000
      9     -19.1102      2.00000
     10     -19.1097      2.00000
     11     -19.1087      2.00000
     12     -19.1086      2.00000
     13      -9.7921      2.00000
     14      -9.7741      2.00000
     15      -9.7592      2.00000
     16      -7.0852      2.00000
     17       0.4648      2.00000
     18       0.8855      2.00000
     19       1.4146      2.00000
     20       4.6443      0.00000
     21       5.0873      0.00000
     22       5.2356      0.00000
     23       6.0421      0.00000

 k-point    28 :      -0.3750    0.5000    0.1250
  band No.  band energies     occupation 
      1     -25.6064      2.00000
      2     -22.3853      2.00000
      3     -22.3843      2.00000
      4     -22.3836      2.00000
      5     -22.3778      2.00000
      6     -22.3765      2.00000
      7     -22.3758      2.00000
      8     -19.1107      2.00000
      9     -19.1098      2.00000
     10     -19.1097      2.00000
     11     -19.1086      2.00000
     12     -19.1085      2.00000
     13      -9.7864      2.00000
     14      -9.7679      2.00000
     15      -9.7677      2.00000
     16      -7.1041      2.00000
     17       0.5206      2.00000
     18       1.2265      2.00000
     19       1.2726      2.00000
     20       3.8148      0.00000
     21       4.2508      0.00000
     22       6.3228      0.00000
     23       6.4232      0.00000

 k-point    29 :      -0.2500    0.5000    0.2500
  band No.  band energies     occupation 
      1     -25.6063      2.00000
      2     -22.3855      2.00000
      3     -22.3841      2.00000
      4     -22.3807      2.00000
      5     -22.3807      2.00000
      6     -22.3763      2.00000
      7     -22.3761      2.00000
      8     -19.1103      2.00000
      9     -19.1103      2.00000
     10     -19.1096      2.00000
     11     -19.1086      2.00000
     12     -19.1086      2.00000
     13      -9.7770      2.00000
     14      -9.7770      2.00000
     15      -9.7720      2.00000
     16      -7.0891      2.00000
     17       0.7996      2.00000
     18       0.7996      2.00000
     19       1.0761      2.00000
     20       4.9988      0.00000
     21       4.9988      0.00000
     22       5.0339      0.00000
     23       5.5821      0.00000


--------------------------------------------------------------------------------------------------------


 soft charge-density along one line, spin component           1
         0         1         2         3         4         5         6         7         8         9
 total charge-density along one line
 
 pseudopotential strength for first ion, spin component:           1
-19.455   0.000   0.000   0.000   0.000   5.075  -0.000  -0.000
  0.000 -19.455  -0.000   0.000   0.000  -0.000   5.075   0.000
  0.000  -0.000 -19.456  -0.000   0.000  -0.000   0.000   5.076
  0.000   0.000  -0.000 -19.455  -0.000  -0.000  -0.000   0.000
  0.000   0.000   0.000  -0.000 -19.456  -0.000  -0.000  -0.000
  5.075  -0.000  -0.000  -0.000  -0.000   5.259  -0.000   0.000
 -0.000   5.075   0.000  -0.000  -0.000  -0.000   5.259  -0.000
 -0.000   0.000   5.076   0.000  -0.000   0.000  -0.000   5.259
 -0.000  -0.000   0.000   5.075   0.000  -0.000  -0.000  -0.000
 -0.000  -0.000  -0.000   0.000   5.076  -0.000   0.000   0.000
  0.000   0.000  -0.000   0.000   0.000   0.000   0.000  -0.000
  0.000   0.000  -0.000   0.000   0.000  -0.000  -0.000   0.000
  0.000   0.000  -0.000   0.000  -0.000   0.000   0.000  -0.000
  0.000   0.000   0.000   0.000   0.000   0.000   0.000   0.000
  0.000   0.000  -0.000   0.000   0.000   0.000   0.000  -0.000
  0.000   0.000  -0.000   0.000  -0.000   0.000   0.000  -0.000
  0.000   0.000   0.000   0.000   0.000   0.000   0.000   0.000
  0.000   0.000  -0.000   0.000   0.000   0.000   0.000  -0.000
 total augmentation occupancy for first ion, spin component:           1
  1.999  -0.000   0.000  -0.000  -0.000   0.004   0.000   0.000   0.000  -0.000   0.000   0.000   0.000   0.000   0.000  -0.000
 -0.000   1.999  -0.000   0.000   0.000  -0.000   0.004  -0.000  -0.000   0.000   0.000   0.000   0.000  -0.000   0.000  -0.000
  0.000  -0.000   1.999  -0.000   0.000   0.000   0.000   0.003  -0.000   0.000   0.000   0.000   0.000   0.000   0.000   0.000
 -0.000  -0.000  -0.000   1.999  -0.000   0.000   0.000  -0.000   0.004  -0.000  -0.000   0.000   0.000   0.000   0.000   0.000
  0.000   0.000   0.000  -0.000   1.999   0.000   0.000   0.000  -0.000   0.003   0.000   0.000  -0.000   0.000  -0.000   0.000
  0.004  -0.000  -0.000  -0.000   0.000   0.001   0.000  -0.000   0.000   0.000   0.000   0.000   0.000  -0.000   0.000   0.000
  0.000   0.004  -0.000   0.000   0.000   0.000   0.001   0.000   0.000   0.000  -0.000   0.000   0.000   0.000  -0.000   0.000
  0.000   0.000   0.003   0.000   0.000  -0.000  -0.000   0.000   0.000   0.000  -0.000   0.000  -0.000   0.000   0.000   0.000
  0.000  -0.000  -0.000   0.004  -0.000   0.000   0.000   0.000   0.001  -0.000  -0.000   0.000  -0.000   0.000   0.000   0.000
  0.000   0.000   0.000  -0.000   0.003  -0.000   0.000   0.000  -0.000   0.000   0.000   0.000   0.000   0.000  -0.000  -0.000
  0.000   0.000   0.000   0.000   0.000   0.000   0.000  -0.000   0.000   0.000   1.924   0.024   0.000  -0.000   0.000   0.000
  0.000   0.000  -0.000   0.000  -0.000   0.000  -0.000   0.000   0.000   0.000   0.024   0.002   0.000   0.000   0.000  -0.000
  0.000  -0.000  -0.000   0.000   0.000   0.000   0.000  -0.000  -0.000  -0.000   0.000   0.000   1.441   0.000   0.000  -0.069
  0.000   0.000   0.000   0.000   0.000   0.000   0.000   0.000  -0.000   0.000   0.000   0.000  -0.000   1.441   0.000  -0.000
  0.000  -0.000   0.000  -0.000  -0.000  -0.000   0.000   0.000   0.000   0.000   0.000  -0.000   0.000   0.000   1.441   0.000
 -0.000   0.000   0.000   0.000   0.000  -0.000   0.000  -0.000   0.000  -0.000  -0.000  -0.000  -0.069   0.000  -0.000   0.004
  0.000   0.000  -0.000  -0.000   0.000  -0.000   0.000   0.000   0.000   0.000   0.000  -0.000  -0.000  -0.069   0.000   0.000
  0.000   0.000  -0.000   0.000  -0.000   0.000   0.000   0.000   0.000   0.000  -0.000  -0.000   0.000   0.000  -0.069  -0.000


------------------------ aborting loop because EDIFF is reached ----------------------------------------


    CHARGE:  cpu time    0.0363: real time    0.0364
    FORLOC:  cpu time    0.0055: real time    0.0055
    FORNL :  cpu time    0.0441: real time    0.0441
    STRESS:  cpu time    0.1721: real time    0.1722
    FORCOR:  cpu time    0.0538: real time    0.0539
    FORHAR:  cpu time    0.0142: real time    0.0142
    MIXING:  cpu time    0.0094: real time    0.0094
    OFIELD:  cpu time    0.0000: real time    0.0000

  FORCE on cell =-STRESS in cart. coord.  units (eV):
  Direction    XX          YY          ZZ          XY          YZ          ZX
  --------------------------------------------------------------------------------------
  Alpha Z   106.83458   106.83458   106.83458
  Ewald    -826.21432  -826.21432  -826.21432    -0.00028    -0.00028    -0.00028
  Hartree   398.39932   398.39932   398.39932    -0.00017    -0.00017    -0.00017
  E(xc)    -180.54463  -180.54463  -180.54463     0.00004     0.00004     0.00004
  Local     -96.71602   -96.71602   -96.71602     0.00039     0.00039     0.00039
  n-local    17.61470    17.95159    14.85562     1.84425    -1.47446     0.81346
  augment   217.29325   217.29325   217.29325     0.00005     0.00005     0.00005
  Kinetic   364.96691   364.70232   362.75526     3.08358    -2.04275     1.41040
  Fock        0.00000     0.00000     0.00000     0.00000     0.00000     0.00000
  -------------------------------------------------------------------------------------
  Total       0.00098     0.00098     0.00098     0.00000     0.00000    -0.00000
  in kB       0.01171     0.01171     0.01171     0.00000     0.00000    -0.00000
  external pressure =        0.01 kB  Pullay stress =        0.00 kB


 VOLUME and BASIS-vectors are now :
 -----------------------------------------------------------------------------
  energy-cutoff  :      520.00
  volume of cell :      133.39
      direct lattice vectors                 reciprocal lattice vectors
    -0.000000000  4.055366141  4.055366141    -0.123293430  0.123293430  0.123293430
     4.055366141  0.000000000  4.055366141     0.123293430 -0.123293430  0.123293430
     4.055366141  4.055366141 -0.000000000     0.123293430  0.123293430 -0.123293430

  length of vectors
     5.735153797  5.735153797  5.735153797     0.213550484  0.213550484  0.213550484


 FORCES acting on ions
    electron-ion (+dipol)            ewald-force                    non-local-force                 convergence-correction
 -----------------------------------------------------------------------------------------------
   -.731E-03 -.731E-03 -.681E-03   -.433E-03 -.433E-03 -.433E-03   -.445E-20 -.254E-20 -.614E-20   -.736E-09 -.736E-09 -.125E-09
   0.727E-04 0.727E-04 0.694E-04   -.193E-04 -.193E-04 -.193E-04   0.139E-16 0.104E-16 0.891E-17   0.107E-08 0.107E-08 0.932E-09
   -.387E-03 -.387E-03 -.391E-03   -.385E-03 -.385E-03 -.385E-03   -.121E-16 -.104E-16 -.956E-17   -.286E-08 -.286E-08 -.300E-08
   0.373E-02 0.373E-02 0.376E-02   0.838E-03 0.838E-03 0.838E-03   0.169E-19 0.119E-19 0.168E-20   -.139E-07 -.139E-07 -.145E-07
 -----------------------------------------------------------------------------------------------
   0.268E-02 0.268E-02 0.276E-02   -.582E-15 -.557E-15 -.124E-14   0.175E-17 0.932E-20 -.655E-18   -.164E-07 -.164E-07 -.167E-07
 
 
 POSITION                                       TOTAL-FORCE (eV/Angst)
 -----------------------------------------------------------------------------------
      2.02768      2.02768      2.02768         0.000000     -0.000000     -0.000000
      0.00000      0.00000      0.00000         0.000000     -0.000000     -0.000000
      4.05537      4.05537      4.05537        -0.000000      0.000000      0.000000
      6.08304      6.08304      6.08304        -0.000000      0.000000      0.000000
 -----------------------------------------------------------------------------------
    total drift:                                0.002680      0.002680      0.002759


--------------------------------------------------------------------------------------------------------



  FREE ENERGIE OF THE ION-ELECTRON SYSTEM (eV)
  ---------------------------------------------------
  free  energy   TOTEN  =        -8.90501527 eV

  energy  without entropy=       -8.90486289  energy(sigma->0) =       -8.90493908
 
 d Force = 0.0000000E+00[ 0.000E+00, 0.000E+00]  d Energy =-0.2587849E-06 0.259E-06
 d Force = 0.0000000E+00[ 0.000E+00, 0.000E+00]  d Ewald  = 0.1087042E+00-0.109E+00


--------------------------------------------------------------------------------------------------------


    POTLOK:  cpu time    0.0541: real time    0.0542


--------------------------------------------------------------------------------------------------------




--------------------------------------------------------------------------------------------------------


  
 reached required accuracy - stopping structural energy minimisation
     LOOP+:  cpu time    1.9418: real time    1.9525
    4ORBIT:  cpu time    0.0000: real time    0.0000

 total amount of memory used by VASP MPI-rank0    50993. kBytes
=======================================================================

   base      :      30000. kBytes
   nonl-proj :       6296. kBytes
   fftplans  :       3211. kBytes
   grid      :       5943. kBytes
   one-center:         15. kBytes
   wavefun   :       5528. kBytes
 
  
  
 General timing and accounting informations for this job:
 ========================================================
  
                  Total CPU time used (sec):       27.328
                            User time (sec):       26.694
                          System time (sec):        0.634
                         Elapsed time (sec):       27.521
  
                   Maximum memory used (kb):      102436.
                   Average memory used (kb):           0.
  
                          Minor page faults:        42464
                          Major page faults:            0
                 Voluntary context switches:          683
