 running on   28 total cores
 distrk:  each k-point on    7 cores,    4 groups
 distr:  one band on    7 cores,    1 groups
 using from now: INCAR     
 vasp.5.4.4.18Apr17-6-g9f103f2a35 (build Jun 23 2019 17:35:09) complex          
  
 POSCAR found type information on POSCAR  Bi Na Rb
 POSCAR found :  3 types and       4 ions
 scaLAPACK will be used

 ----------------------------------------------------------------------------- 
|                                                                             |
|           W    W    AA    RRRRR   N    N  II  N    N   GGGG   !!!           |
|           W    W   A  A   R    R  NN   N  II  NN   N  G    G  !!!           |
|           W    W  A    A  R    R  N N  N  II  N N  N  G       !!!           |
|           W WW W  AAAAAA  RRRRR   N  N N  II  N  N N  G  GGG   !            |
|           WW  WW  A    A  R   R   N   NN  II  N   NN  G    G                |
|           W    W  A    A  R    R  N    N  II  N    N   GGGG   !!!           |
|                                                                             |
|      You have enabled k-point parallelism (KPAR>1).                         |
|      This developmental code was originally  written by Paul Kent at ORNL,  |
|      and carefully double checked in Vienna.                                |
|      GW as well as linear response parallelism added by Martijn Marsman     |
|      and Georg Kresse.                                                      |
|      Carefully verify results versus KPAR=1.                                |
|      Report problems to Paul Kent and Vienna.                               |
|                                                                             |
 ----------------------------------------------------------------------------- 

 LDA part: xc-table for Pade appr. of Perdew
 POSCAR, INCAR and KPOINTS ok, starting setup
 FFT: planning ...
 WAVECAR not read
 entering main loop
       N       E                     dE             d eps       ncg     rms          rms(c)
DAV:   1     0.374838652080E+03    0.37484E+03   -0.19615E+04  1350   0.173E+03
DAV:   2     0.269810819222E+02   -0.34786E+03   -0.34370E+03  1355   0.459E+02
DAV:   3    -0.841153866885E+01   -0.35393E+02   -0.35213E+02  2133   0.161E+02
DAV:   4    -0.933875091254E+01   -0.92721E+00   -0.92691E+00  1713   0.264E+01
DAV:   5    -0.937305008915E+01   -0.34299E-01   -0.34298E-01  2308   0.376E+00    0.368E+00
DAV:   6    -0.897151460529E+01    0.40154E+00   -0.82261E-01  1838   0.365E+00    0.246E+00
DAV:   7    -0.888968445809E+01    0.81830E-01   -0.50674E-01  1795   0.287E+00    0.116E+00
DAV:   8    -0.889350279583E+01   -0.38183E-02   -0.61530E-02  1598   0.192E+00    0.187E-01
DAV:   9    -0.889295269676E+01    0.55010E-03   -0.15081E-02  1579   0.806E-01    0.104E-01
DAV:  10    -0.889268058552E+01    0.27211E-03   -0.23333E-03  1809   0.230E-01    0.162E-02
DAV:  11    -0.889269565484E+01   -0.15069E-04   -0.10158E-04  1365   0.579E-02    0.107E-02
DAV:  12    -0.889269269977E+01    0.29551E-05   -0.23391E-05  1161   0.292E-02
   1 F= -.88926927E+01 E0= -.88926132E+01  d E =-.889269E+01
 curvature:   0.00 expect dE= 0.000E+00 dE for cont linesearch  0.000E+00
 trial: gam= 0.00000 g(F)=  0.189E-39 g(S)=  0.130E-01 ort = 0.000E+00 (trialstep = 0.100E+01)
 search vector abs. value=  0.130E-01
 bond charge predicted
       N       E                     dE             d eps       ncg     rms          rms(c)
DAV:   1    -0.905113191388E+01   -0.15844E+00   -0.41961E+00  1635   0.274E+01    0.208E+00
DAV:   2    -0.893085427013E+01    0.12028E+00   -0.24690E-01  1537   0.562E+00    0.979E-01
DAV:   3    -0.890260924066E+01    0.28245E-01   -0.91562E-02  1630   0.338E+00    0.159E-01
DAV:   4    -0.890223992482E+01    0.36932E-03   -0.61156E-03  2035   0.470E-01    0.106E-01
DAV:   5    -0.890213228711E+01    0.10764E-03   -0.76293E-04  1854   0.185E-01    0.309E-02
DAV:   6    -0.890207697204E+01    0.55315E-04   -0.22071E-04  1502   0.147E-01    0.126E-02
DAV:   7    -0.890207817549E+01   -0.12034E-05   -0.15094E-05  1129   0.280E-02
   2 F= -.89020782E+01 E0= -.89020022E+01  d E =-.938548E-02
 trial-energy change:   -0.009385  1 .order   -0.009848   -0.012988   -0.006708
 step:   2.0683(harm=  2.0683)  dis= 0.00000  next Energy=    -8.906124 (dE=-0.134E-01)
 bond charge predicted
       N       E                     dE             d eps       ncg     rms          rms(c)
DAV:   1    -0.907263133418E+01   -0.17055E+00   -0.47265E+00  1635   0.290E+01    0.220E+00
DAV:   2    -0.893736138802E+01    0.13527E+00   -0.27845E-01  1530   0.595E+00    0.104E+00
DAV:   3    -0.890559703825E+01    0.31764E-01   -0.10262E-01  1637   0.357E+00    0.169E-01
DAV:   4    -0.890516997286E+01    0.42707E-03   -0.67799E-03  2090   0.490E-01    0.113E-01
DAV:   5    -0.890504642788E+01    0.12354E-03   -0.81549E-04  1813   0.189E-01    0.325E-02
DAV:   6    -0.890498793420E+01    0.58494E-04   -0.23898E-04  1474   0.152E-01    0.136E-02
DAV:   7    -0.890498931595E+01   -0.13818E-05   -0.15815E-05  1129   0.316E-02
   3 F= -.89049893E+01 E0= -.89049131E+01  d E =-.122966E-01
 curvature:  -1.03 expect dE=-0.273E-05 dE for cont linesearch -0.273E-05
 ZBRENT: interpolating
 opt :   2.0395  next Energy=    -8.904992 (dE=-0.123E-01)
 bond charge predicted
       N       E                     dE             d eps       ncg     rms          rms(c)
DAV:   1    -0.890512344978E+01   -0.13552E-03   -0.33851E-03  1593   0.758E-01    0.594E-02
DAV:   2    -0.890502278321E+01    0.10067E-03   -0.20737E-04  1593   0.162E-01    0.278E-02
DAV:   3    -0.890500100151E+01    0.21782E-04   -0.71710E-05  1484   0.946E-02    0.458E-03
DAV:   4    -0.890500185343E+01   -0.85193E-06   -0.40048E-06   800   0.135E-02    0.275E-03
DAV:   5    -0.890500286112E+01   -0.10077E-05   -0.10123E-06   688   0.791E-03
   4 F= -.89050029E+01 E0= -.89049266E+01  d E =-.123102E-01
 curvature:  -1.01 expect dE=-0.555E-05 dE for cont linesearch -0.555E-05
 ZBRENT: bisectioning
 opt :   1.5198  next Energy=    -8.905529 (dE=-0.128E-01)
 bond charge predicted
       N       E                     dE             d eps       ncg     rms          rms(c)
DAV:   1    -0.894444234654E+01   -0.39440E-01   -0.10940E+00  1600   0.136E+01    0.109E+00
DAV:   2    -0.891177861759E+01    0.32664E-01   -0.68362E-02  1544   0.291E+00    0.504E-01
DAV:   3    -0.890444194321E+01    0.73367E-02   -0.23459E-02  1614   0.170E+00    0.860E-02
DAV:   4    -0.890438586626E+01    0.56077E-04   -0.16981E-03  2130   0.235E-01    0.555E-02
DAV:   5    -0.890438849946E+01   -0.26332E-05   -0.19914E-04  1776   0.917E-02    0.141E-02
DAV:   6    -0.890438366129E+01    0.48382E-05   -0.38677E-05  1474   0.554E-02
   5 F= -.89043837E+01 E0= -.89043076E+01  d E =-.116910E-01
 curvature: -95.47 expect dE=-0.504E-01 dE for cont linesearch -0.504E-01
 ZBRENT: interpolating
 opt :   1.9914  next Energy=    -8.905009 (dE=-0.123E-01)
 bond charge predicted
       N       E                     dE             d eps       ncg     rms          rms(c)
DAV:   1    -0.893780318786E+01   -0.33415E-01   -0.91314E-01  1614   0.126E+01    0.978E-01
DAV:   2    -0.891130999566E+01    0.26493E-01   -0.55038E-02  1537   0.263E+00    0.458E-01
DAV:   3    -0.890514959421E+01    0.61604E-02   -0.19743E-02  1622   0.156E+00    0.757E-02
DAV:   4    -0.890505959515E+01    0.89999E-04   -0.13542E-03  2076   0.215E-01    0.497E-02
DAV:   5    -0.890502732905E+01    0.32266E-04   -0.16367E-04  1806   0.841E-02    0.136E-02
DAV:   6    -0.890501355356E+01    0.13775E-04   -0.40696E-05  1432   0.607E-02    0.598E-03
DAV:   7    -0.890501455275E+01   -0.99920E-06   -0.29904E-06   744   0.137E-02
   6 F= -.89050146E+01 E0= -.89049384E+01  d E =-.123219E-01
 curvature:  -0.01 expect dE=-0.794E-08 dE for cont linesearch -0.794E-08
 ZBRENT: interpolating
 opt :   1.9670  next Energy=    -8.905016 (dE=-0.123E-01)
 bond charge predicted
       N       E                     dE             d eps       ncg     rms          rms(c)
DAV:   1    -0.890510208464E+01   -0.88531E-04   -0.24042E-03  1586   0.640E-01    0.506E-02
DAV:   2    -0.890502893423E+01    0.73150E-04   -0.14865E-04  1586   0.136E-01    0.237E-02
DAV:   3    -0.890501321208E+01    0.15722E-04   -0.51485E-05  1299   0.803E-02    0.394E-03
DAV:   4    -0.890501395623E+01   -0.74414E-06   -0.25383E-06   702   0.122E-02    0.238E-03
DAV:   5    -0.890501490615E+01   -0.94992E-06   -0.98345E-07   688   0.715E-03
   7 F= -.89050149E+01 E0= -.89049387E+01  d E =-.123222E-01
 curvature:  -1.78 expect dE=-0.121E-05 dE for cont linesearch -0.121E-05
 ZBRENT: interpolating
 opt :   1.9793  next Energy=    -8.905015 (dE=-0.123E-01)
 bond charge predicted
       N       E                     dE             d eps       ncg     rms          rms(c)
DAV:   1    -0.890503804044E+01   -0.24084E-04   -0.61415E-04  1635   0.322E-01    0.259E-02
DAV:   2    -0.890502096464E+01    0.17076E-04   -0.38876E-05  1215   0.705E-02    0.120E-02
DAV:   3    -0.890501640461E+01    0.45600E-05   -0.14088E-05   751   0.416E-02    0.226E-03
DAV:   4    -0.890501567521E+01    0.72940E-06   -0.14048E-06   688   0.866E-03    0.101E-03
DAV:   5    -0.890501553170E+01    0.14351E-06   -0.39843E-07   688   0.546E-03
   8 F= -.89050155E+01 E0= -.89049393E+01  d E =-.123228E-01
 curvature:  -0.82 expect dE=-0.505E-06 dE for cont linesearch -0.505E-06
 ZBRENT: bisectioning
 opt :   1.9732  next Energy=    -8.905016 (dE=-0.123E-01)
 bond charge predicted
       N       E                     dE             d eps       ncg     rms          rms(c)
DAV:   1    -0.890502055608E+01   -0.48809E-05   -0.14913E-04  1152   0.160E-01    0.128E-02
DAV:   2    -0.890501563525E+01    0.49208E-05   -0.83059E-06   688   0.368E-02    0.585E-03
DAV:   3    -0.890501479647E+01    0.83878E-06   -0.40042E-06   688   0.222E-02    0.989E-04
DAV:   4    -0.890501516723E+01   -0.37076E-06   -0.39220E-07   688   0.656E-03    0.497E-04
DAV:   5    -0.890501527291E+01   -0.10568E-06   -0.13147E-07   688   0.318E-03
   9 F= -.89050153E+01 E0= -.89049391E+01  d E =-.123226E-01
 curvature:  -0.89 expect dE=-0.305E-07 dE for cont linesearch -0.305E-07
 trial: gam=-0.00162 g(F)=  0.112E-39 g(S)=  0.344E-07 ort = 0.211E-04 (trialstep = 0.119E+01)
 search vector abs. value=  0.100E-09
 reached required accuracy - stopping structural energy minimisation
