<?xml version="1.0" encoding="ISO-8859-1"?>
<modeling>
 <generator>
  <i name="program" type="string">vasp </i>
  <i name="version" type="string">5.4.4.18Apr17-6-g9f103f2a35  </i>
  <i name="subversion" type="string">(build Jun 23 2019 17:35:09) complex            parallel </i>
  <i name="platform" type="string">LinuxIFC </i>
  <i name="date" type="string">2020 01 14 </i>
  <i name="time" type="string">23:10:29 </i>
 </generator>
 <incar>
  <i type="int" name="ISTART">     0</i>
  <i type="string" name="PREC">acc</i>
  <i type="string" name="ALGO"> Normal</i>
  <i type="int" name="ISPIN">     1</i>
  <i type="int" name="NELMIN">     5</i>
  <i type="int" name="IBRION">     2</i>
  <i name="EDIFF">      0.00001000</i>
  <i name="EDIFFG">     -0.00100000</i>
  <i type="int" name="NSW">   100</i>
  <i type="int" name="ISIF">     3</i>
  <i name="ENCUT">    520.00000000</i>
  <i type="logical" name="LREAL"> F  </i>
  <i type="logical" name="LPLANE"> T  </i>
  <i type="int" name="ISMEAR">     0</i>
  <i name="SIGMA">      0.05000000</i>
  <i type="logical" name="LWAVE"> F  </i>
  <i type="logical" name="LCHARG"> F  </i>
  <v type="int" name="KPOINT_BSE">    -1     0     0     0</v>
  <i type="string" name="GGA"> PE</i>
 </incar>
 <structure name="primitive_cell" >
  <crystal>
   <varray name="basis" >
    <v>       0.00000000       3.99835700       3.99835700 </v>
    <v>       3.99835700       0.00000000       3.99835700 </v>
    <v>       3.99835700       3.99835700       0.00000000 </v>
   </varray>
   <i name="volume">    127.84233678 </i>
   <varray name="rec_basis" >
    <v>      -0.12505136       0.12505136       0.12505136 </v>
    <v>       0.12505136      -0.12505136       0.12505136 </v>
    <v>       0.12505136       0.12505136      -0.12505136 </v>
   </varray>
  </crystal>
  <varray name="positions" >
   <v>       0.25000019       0.25000019       0.25000019 </v>
   <v>       0.00000000       0.00000000       0.00000000 </v>
   <v>      -0.49999962      -0.49999962      -0.49999962 </v>
   <v>      -0.25000069      -0.25000069      -0.25000069 </v>
  </varray>
 </structure>
 <varray name="primitive_index" >
  <v type="int" >        1 </v>
  <v type="int" >        2 </v>
  <v type="int" >        3 </v>
  <v type="int" >        4 </v>
 </varray>
 <kpoints>
  <generation param="Gamma">
   <v type="int" name="divisions">       8        8        8 </v>
   <v name="usershift">      0.00000000       0.00000000       0.00000000 </v>
   <v name="genvec1">      0.12500000       0.00000000       0.00000000 </v>
   <v name="genvec2">      0.00000000       0.12500000       0.00000000 </v>
   <v name="genvec3">      0.00000000       0.00000000       0.12500000 </v>
   <v name="shift">      0.00000000       0.00000000       0.00000000 </v>
  </generation>
  <varray name="kpointlist" >
   <v>       0.00000000       0.00000000       0.00000000 </v>
   <v>       0.12500000       0.00000000       0.00000000 </v>
   <v>       0.25000000       0.00000000       0.00000000 </v>
   <v>       0.37500000       0.00000000       0.00000000 </v>
   <v>       0.50000000       0.00000000       0.00000000 </v>
   <v>       0.12500000       0.12500000       0.00000000 </v>
   <v>       0.25000000       0.12500000       0.00000000 </v>
   <v>       0.37500000       0.12500000       0.00000000 </v>
   <v>       0.50000000       0.12500000       0.00000000 </v>
   <v>      -0.37500000       0.12500000       0.00000000 </v>
   <v>      -0.25000000       0.12500000       0.00000000 </v>
   <v>      -0.12500000       0.12500000       0.00000000 </v>
   <v>       0.25000000       0.25000000       0.00000000 </v>
   <v>       0.37500000       0.25000000       0.00000000 </v>
   <v>       0.50000000       0.25000000       0.00000000 </v>
   <v>      -0.37500000       0.25000000       0.00000000 </v>
   <v>      -0.25000000       0.25000000       0.00000000 </v>
   <v>       0.37500000       0.37500000       0.00000000 </v>
   <v>       0.50000000       0.37500000       0.00000000 </v>
   <v>      -0.37500000       0.37500000       0.00000000 </v>
   <v>       0.50000000       0.50000000       0.00000000 </v>
   <v>       0.37500000       0.25000000       0.12500000 </v>
   <v>       0.50000000       0.25000000       0.12500000 </v>
   <v>      -0.37500000       0.25000000       0.12500000 </v>
   <v>       0.50000000       0.37500000       0.12500000 </v>
   <v>      -0.37500000       0.37500000       0.12500000 </v>
   <v>      -0.25000000       0.37500000       0.12500000 </v>
   <v>      -0.37500000       0.50000000       0.12500000 </v>
   <v>      -0.25000000       0.50000000       0.25000000 </v>
  </varray>
  <varray name="weights" >
   <v>       0.00195312 </v>
   <v>       0.01562500 </v>
   <v>       0.01562500 </v>
   <v>       0.01562500 </v>
   <v>       0.00781250 </v>
   <v>       0.01171875 </v>
   <v>       0.04687500 </v>
   <v>       0.04687500 </v>
   <v>       0.04687500 </v>
   <v>       0.04687500 </v>
   <v>       0.04687500 </v>
   <v>       0.02343750 </v>
   <v>       0.01171875 </v>
   <v>       0.04687500 </v>
   <v>       0.04687500 </v>
   <v>       0.04687500 </v>
   <v>       0.02343750 </v>
   <v>       0.01171875 </v>
   <v>       0.04687500 </v>
   <v>       0.02343750 </v>
   <v>       0.00585938 </v>
   <v>       0.04687500 </v>
   <v>       0.09375000 </v>
   <v>       0.04687500 </v>
   <v>       0.04687500 </v>
   <v>       0.09375000 </v>
   <v>       0.04687500 </v>
   <v>       0.02343750 </v>
   <v>       0.01171875 </v>
  </varray>
 </kpoints>
 <parameters>
  <separator name="general" >
   <i type="string" name="SYSTEM">unknown system</i>
   <i type="logical" name="LCOMPAT"> F  </i>
  </separator>
  <separator name="electronic" >
   <i type="string" name="PREC">acc</i>
   <i name="ENMAX">    520.00000000</i>
   <i name="ENAUG">    442.89900000</i>
   <i name="EDIFF">      0.00001000</i>
   <i type="int" name="IALGO">    38</i>
   <i type="int" name="IWAVPR">    11</i>
   <i type="int" name="NBANDS">    23</i>
   <i name="NELECT">     38.00000000</i>
   <i type="int" name="TURBO">     0</i>
   <i type="int" name="IRESTART">     0</i>
   <i type="int" name="NREBOOT">     0</i>
   <i type="int" name="NMIN">     0</i>
   <i name="EREF">      0.00000000</i>
   <separator name="electronic smearing" >
    <i type="int" name="ISMEAR">     0</i>
    <i name="SIGMA">      0.05000000</i>
    <i name="KSPACING">      0.50000000</i>
    <i type="logical" name="KGAMMA"> T  </i>
   </separator>
   <separator name="electronic projectors" >
    <i type="logical" name="LREAL"> F  </i>
    <v name="ROPT">      0.00000000      0.00000000      0.00000000</v>
    <i type="int" name="LMAXPAW">  -100</i>
    <i type="int" name="LMAXMIX">     2</i>
    <i type="logical" name="NLSPLINE"> F  </i>
   </separator>
   <separator name="electronic startup" >
    <i type="int" name="ISTART">     0</i>
    <i type="int" name="ICHARG">     2</i>
    <i type="int" name="INIWAV">     1</i>
   </separator>
   <separator name="electronic spin" >
    <i type="int" name="ISPIN">     1</i>
    <i type="logical" name="LNONCOLLINEAR"> F  </i>
    <v name="MAGMOM">      1.00000000      1.00000000      1.00000000      1.00000000</v>
    <i name="NUPDOWN">     -1.00000000</i>
    <i type="logical" name="LSORBIT"> F  </i>
    <v name="SAXIS">      0.00000000      0.00000000      1.00000000</v>
    <i type="logical" name="LSPIRAL"> F  </i>
    <v name="QSPIRAL">      0.00000000      0.00000000      0.00000000</v>
    <i type="logical" name="LZEROZ"> F  </i>
   </separator>
   <separator name="electronic exchange-correlation" >
    <i type="logical" name="LASPH"> F  </i>
    <i type="logical" name="LMETAGGA"> F  </i>
   </separator>
   <separator name="electronic convergence" >
    <i type="int" name="NELM">    60</i>
    <i type="int" name="NELMDL">    -5</i>
    <i type="int" name="NELMIN">     5</i>
    <i name="ENINI">    520.00000000</i>
    <separator name="electronic convergence detail" >
     <i type="logical" name="LDIAG"> T  </i>
     <i type="logical" name="LSUBROT"> F  </i>
     <i name="WEIMIN">      0.00100000</i>
     <i name="EBREAK">      0.00000011</i>
     <i name="DEPER">      0.30000000</i>
     <i type="int" name="NRMM">     4</i>
     <i name="TIME">      0.40000000</i>
    </separator>
   </separator>
   <separator name="electronic mixer" >
    <i name="AMIX">      0.40000000</i>
    <i name="BMIX">      1.00000000</i>
    <i name="AMIN">      0.10000000</i>
    <i name="AMIX_MAG">      1.60000000</i>
    <i name="BMIX_MAG">      1.00000000</i>
    <separator name="electronic mixer details" >
     <i type="int" name="IMIX">     4</i>
     <i type="logical" name="MIXFIRST"> F  </i>
     <i type="int" name="MAXMIX">   -45</i>
     <i name="WC">    100.00000000</i>
     <i type="int" name="INIMIX">     1</i>
     <i type="int" name="MIXPRE">     1</i>
     <i type="int" name="MREMOVE">     5</i>
    </separator>
   </separator>
   <separator name="electronic dipolcorrection" >
    <i type="logical" name="LDIPOL"> F  </i>
    <i type="logical" name="LMONO"> F  </i>
    <i type="int" name="IDIPOL">     0</i>
    <i name="EPSILON">      1.00000000</i>
    <v name="DIPOL">   -100.00000000   -100.00000000   -100.00000000</v>
    <i name="EFIELD">      0.00000000</i>
   </separator>
  </separator>
  <separator name="grids" >
   <i type="int" name="NGX">    42</i>
   <i type="int" name="NGY">    42</i>
   <i type="int" name="NGZ">    42</i>
   <i type="int" name="NGXF">    84</i>
   <i type="int" name="NGYF">    84</i>
   <i type="int" name="NGZF">    84</i>
   <i type="logical" name="ADDGRID"> F  </i>
  </separator>
  <separator name="ionic" >
   <i type="int" name="NSW">   100</i>
   <i type="int" name="IBRION">     2</i>
   <i type="int" name="MDALGO">     0</i>
   <i type="int" name="ISIF">     3</i>
   <i name="PSTRESS">      0.00000000</i>
   <i name="EDIFFG">     -0.00100000</i>
   <i type="int" name="NFREE">     1</i>
   <i name="POTIM">      0.50000000</i>
   <i name="SMASS">     -3.00000000</i>
   <i name="SCALEE">      1.00000000</i>
  </separator>
  <separator name="ionic md" >
   <i name="TEBEG">      0.00010000</i>
   <i name="TEEND">      0.00010000</i>
   <i type="int" name="NBLOCK">     1</i>
   <i type="int" name="KBLOCK">   100</i>
   <i type="int" name="NPACO">   256</i>
   <i name="APACO">     16.00000000</i>
  </separator>
  <separator name="symmetry" >
   <i type="int" name="ISYM">     2</i>
   <i name="SYMPREC">      0.00001000</i>
  </separator>
  <separator name="dos" >
   <i type="int" name="LORBIT">     0</i>
   <v name="RWIGS">     -1.00000000     -1.00000000     -1.00000000</v>
   <i type="int" name="NEDOS">   301</i>
   <i name="EMIN">     10.00000000</i>
   <i name="EMAX">    -10.00000000</i>
   <i name="EFERMI">      0.00000000</i>
  </separator>
  <separator name="writing" >
   <i type="int" name="NWRITE">     2</i>
   <i type="logical" name="LWAVE"> F  </i>
   <i type="logical" name="LDOWNSAMPLE"> F  </i>
   <i type="logical" name="LCHARG"> F  </i>
   <i type="logical" name="LPARD"> F  </i>
   <i type="logical" name="LVTOT"> F  </i>
   <i type="logical" name="LVHAR"> F  </i>
   <i type="logical" name="LELF"> F  </i>
   <i type="logical" name="LOPTICS"> F  </i>
   <v name="STM">      0.00000000      0.00000000      0.00000000      0.00000000      0.00000000      0.00000000      0.00000000</v>
  </separator>
  <separator name="performance" >
   <i type="int" name="NPAR">     1</i>
   <i type="int" name="NSIM">     4</i>
   <i type="int" name="NBLK">    -1</i>
   <i type="logical" name="LPLANE"> T  </i>
   <i type="logical" name="LSCALAPACK"> T  </i>
   <i type="logical" name="LSCAAWARE"> F  </i>
   <i type="logical" name="LSCALU"> F  </i>
   <i type="logical" name="LASYNC"> F  </i>
   <i type="logical" name="LORBITALREAL"> F  </i>
  </separator>
  <separator name="miscellaneous" >
   <i type="int" name="IDIOT">     3</i>
   <i type="int" name="ISPECIAL">     0</i>
   <i type="logical" name="LMUSIC"> F  </i>
   <v name="POMASS">    208.98000000     22.99000000     85.46800000</v>
   <v name="DARWINR">      0.00000000      0.00000000      0.00000000</v>
   <v name="DARWINV">      1.00000000      1.00000000      1.00000000</v>
   <i type="logical" name="LCORR"> T  </i>
  </separator>
  <i type="logical" name="GGA_COMPAT"> T  </i>
  <i type="logical" name="LBERRY"> F  </i>
  <i type="int" name="ICORELEVEL">     0</i>
  <i type="logical" name="LDAU"> F  </i>
  <i type="int" name="I_CONSTRAINED_M">     0</i>
  <separator name="electronic exchange-correlation" >
   <i type="string" name="GGA">PE</i>
   <i type="int" name="VOSKOWN">     0</i>
   <i type="logical" name="LHFCALC"> F  </i>
   <i type="string" name="PRECFOCK"></i>
   <i type="logical" name="LSYMGRAD"> F  </i>
   <i type="logical" name="LHFONE"> F  </i>
   <i type="logical" name="LRHFCALC"> F  </i>
   <i type="logical" name="LTHOMAS"> F  </i>
   <i type="logical" name="LMODELHF"> F  </i>
   <i name="ENCUT4O">     -1.00000000</i>
   <i type="int" name="EXXOEP">     0</i>
   <i type="int" name="FOURORBIT">     0</i>
   <i name="AEXX">      0.00000000</i>
   <i name="HFALPHA">      0.00000000</i>
   <i name="MCALPHA">      0.00000000</i>
   <i name="ALDAX">      1.00000000</i>
   <i name="AGGAX">      1.00000000</i>
   <i name="ALDAC">      1.00000000</i>
   <i name="AGGAC">      1.00000000</i>
   <i type="int" name="NKREDX">     1</i>
   <i type="int" name="NKREDY">     1</i>
   <i type="int" name="NKREDZ">     1</i>
   <i type="logical" name="SHIFTRED"> F  </i>
   <i type="logical" name="ODDONLY"> F  </i>
   <i type="logical" name="EVENONLY"> F  </i>
   <i type="int" name="LMAXFOCK">     0</i>
   <i type="int" name="NMAXFOCKAE">     0</i>
   <i type="logical" name="LFOCKAEDFT"> F  </i>
   <i name="HFSCREEN">      0.00000000</i>
   <i name="HFSCREENC">      0.00000000</i>
   <i type="int" name="NBANDSGWLOW">     0</i>
  </separator>
  <separator name="vdW DFT" >
   <i type="logical" name="LUSE_VDW"> F  </i>
   <i name="Zab_VDW">     -0.84910000</i>
   <i name="PARAM1">      0.12340000</i>
   <i name="PARAM2">      1.00000000</i>
   <i name="PARAM3">      0.00000000</i>
  </separator>
  <separator name="model GW" >
   <i type="int" name="MODEL_GW">     0</i>
   <i name="MODEL_EPS0">     19.17635052</i>
   <i name="MODEL_ALPHA">      1.00000000</i>
  </separator>
  <separator name="linear response parameters" >
   <i type="logical" name="LEPSILON"> F  </i>
   <i type="logical" name="LRPA"> F  </i>
   <i type="logical" name="LNABLA"> F  </i>
   <i type="logical" name="LVEL"> F  </i>
   <i type="int" name="KINTER">     0</i>
   <i name="CSHIFT">      0.10000000</i>
   <i name="OMEGAMAX">     -1.00000000</i>
   <i name="DEG_THRESHOLD">      0.00200000</i>
   <i name="RTIME">     -0.10000000</i>
   <i name="WPLASMAI">      0.00000000</i>
   <v name="DFIELD">      0.00000000      0.00000000      0.00000000</v>
   <v name="WPLASMA">      0.00000000      0.00000000      0.00000000      0.00000000      0.00000000      0.00000000      0.00000000      0.00000000      0.00000000</v>
  </separator>
  <separator name="orbital magnetization" >
   <i type="logical" name="NUCIND"> F  </i>
   <v name="MAGPOS">      0.00000000      0.00000000      0.00000000</v>
   <i type="logical" name="LNICSALL"> T  </i>
   <i type="logical" name="ORBITALMAG"> F  </i>
   <i type="logical" name="LMAGBLOCH"> F  </i>
   <i type="logical" name="LCHIMAG"> F  </i>
   <i type="logical" name="LGAUGE"> T  </i>
   <i type="int" name="MAGATOM">     0</i>
   <v name="MAGDIPOL">      0.00000000      0.00000000      0.00000000</v>
   <v name="AVECCONST">      0.00000000      0.00000000      0.00000000</v>
  </separator>
  <separator name="response functions" >
   <i type="logical" name="LADDER"> F  </i>
   <i type="logical" name="LRPAFORCE"> F  </i>
   <i type="logical" name="LFXC"> F  </i>
   <i type="logical" name="LHARTREE"> T  </i>
   <i type="int" name="IBSE">     0</i>
   <v type="int" name="KPOINT">    -1     0     0     0</v>
   <i type="logical" name="LTCTE"> F  </i>
   <i type="logical" name="LTETE"> F  </i>
   <i type="logical" name="LTRIPLET"> F  </i>
   <i type="logical" name="LFXCEPS"> F  </i>
   <i type="logical" name="LFXHEG"> F  </i>
   <i type="int" name="NATURALO">     2</i>
   <i type="logical" name="L2ORDER"> F  </i>
   <i type="logical" name="LMP2LT"> F  </i>
   <i type="logical" name="LUSEW"> F  </i>
   <i name="ENCUTGW">     -2.00000000</i>
   <i name="ENCUTGWSOFT">     -2.00000000</i>
   <i name="ENCUTLF">     -1.00000000</i>
   <i type="int" name="LMAXMP2">    -1</i>
   <i name="SCISSOR">      0.00000000</i>
   <i type="int" name="NOMEGA">     0</i>
   <i type="int" name="NOMEGAR">     0</i>
   <i type="int" name="NBANDSGW">    -1</i>
   <i type="int" name="NBANDSO">    -1</i>
   <i type="int" name="NBANDSV">    -1</i>
   <i type="int" name="NELM">     1</i>
   <i type="int" name="NELMHF">     1</i>
   <i type="int" name="DIM">     3</i>
   <i type="int" name="ANTIRES">     0</i>
   <i name="OMEGAMAX">    -30.00000000</i>
   <i name="OMEGAMIN">    -30.00000000</i>
   <i name="OMEGATL">   -200.00000000</i>
   <i type="int" name="OMEGAGRID">   140</i>
   <i name="CSHIFT">     -0.10000000</i>
   <i type="logical" name="SELFENERGY"> F  </i>
   <i type="logical" name="LSPECTRAL"> F  </i>
   <i type="logical" name="LSPECTRALGW"> F  </i>
   <i type="logical" name="LSINGLES"> F  </i>
   <i type="logical" name="LFERMIGW"> F  </i>
   <i type="logical" name="ODDONLYGW"> F  </i>
   <i type="logical" name="EVENONLYGW"> F  </i>
   <i type="int" name="NKREDLFX">     1</i>
   <i type="int" name="NKREDLFY">     1</i>
   <i type="int" name="NKREDLFZ">     1</i>
   <i type="int" name="MAXMEM">  2800</i>
   <i type="int" name="TELESCOPE">     0</i>
   <i type="int" name="TAUPAR">     1</i>
   <i type="int" name="OMEGAPAR">    -1</i>
   <i name="LAMBDA">      1.00000000</i>
  </separator>
  <separator name="External order field" >
   <i name="OFIELD_KAPPA">      0.00000000</i>
   <v name="OFIELD_K">      0.00000000      0.00000000      0.00000000</v>
   <i name="OFIELD_Q6_NEAR">      0.00000000</i>
   <i name="OFIELD_Q6_FAR">      0.00000000</i>
   <i name="OFIELD_A">      0.00000000</i>
  </separator>
 </parameters>
 <atominfo>
  <atoms>       4 </atoms>
  <types>       3 </types>
  <array name="atoms" >
   <dimension dim="1">ion</dimension>
   <field type="string">element</field>
   <field type="int">atomtype</field>
   <set>
    <rc><c>Bi</c><c>   1</c></rc>
    <rc><c>Na</c><c>   2</c></rc>
    <rc><c>Na</c><c>   2</c></rc>
    <rc><c>Rb</c><c>   3</c></rc>
   </set>
  </array>
  <array name="atomtypes" >
   <dimension dim="1">type</dimension>
   <field type="int">atomspertype</field>
   <field type="string">element</field>
   <field>mass</field>
   <field>valence</field>
   <field type="string">pseudopotential</field>
   <set>
    <rc><c>   1</c><c>Bi</c><c>    208.98000000</c><c>     15.00000000</c><c>  PAW_PBE Bi_d 06Sep2000                </c></rc>
    <rc><c>   2</c><c>Na</c><c>     22.99000000</c><c>      7.00000000</c><c>  PAW_PBE Na_pv 19Sep2006               </c></rc>
    <rc><c>   1</c><c>Rb</c><c>     85.46800000</c><c>      9.00000000</c><c>  PAW_PBE Rb_sv 06Sep2000               </c></rc>
   </set>
  </array>
 </atominfo>
 <structure name="initialpos" >
  <crystal>
   <varray name="basis" >
    <v>       0.00000000       3.99835700       3.99835700 </v>
    <v>       3.99835700       0.00000000       3.99835700 </v>
    <v>       3.99835700       3.99835700       0.00000000 </v>
   </varray>
   <i name="volume">    127.84233678 </i>
   <varray name="rec_basis" >
    <v>      -0.12505136       0.12505136       0.12505136 </v>
    <v>       0.12505136      -0.12505136       0.12505136 </v>
    <v>       0.12505136       0.12505136      -0.12505136 </v>
   </varray>
  </crystal>
  <varray name="positions" >
   <v>       0.25000019       0.25000019       0.25000019 </v>
   <v>       0.00000000       0.00000000       0.00000000 </v>
   <v>       0.50000038       0.50000038       0.50000038 </v>
   <v>       0.74999931       0.74999931       0.74999931 </v>
  </varray>
 </structure>
 <calculation>
  <scstep>
   <time name="dav">    0.28    0.28</time>
   <time name="total">    0.34    0.34</time>
   <energy>
    <i name="alphaZ">    111.46983113 </i>
    <i name="ewald">  -2513.98178706 </i>
    <i name="hartreedc">  -1177.44443738 </i>
    <i name="XCdc">    127.24542746 </i>
    <i name="pawpsdc">   3185.16912008 </i>
    <i name="pawaedc">  -3328.20531600 </i>
    <i name="eentropy">     -0.00172549 </i>
    <i name="bandstr">   -183.19977552 </i>
    <i name="atom">   4153.78731487 </i>
    <i name="e_fr_energy">    374.83865208 </i>
    <i name="e_wo_entrp">    374.84037757 </i>
    <i name="e_0_energy">    374.83951483 </i>
   </energy>
  </scstep>
  <scstep>
   <time name="dav">    0.28    0.29</time>
   <time name="total">    0.28    0.29</time>
   <energy>
    <i name="e_fr_energy">     26.98108192 </i>
    <i name="e_wo_entrp">     26.98323934 </i>
    <i name="e_0_energy">     26.98216063 </i>
   </energy>
  </scstep>
  <scstep>
   <time name="dav">    0.38    0.38</time>
   <time name="total">    0.38    0.38</time>
   <energy>
    <i name="e_fr_energy">     -8.41153867 </i>
    <i name="e_wo_entrp">     -8.41153867 </i>
    <i name="e_0_energy">     -8.41153867 </i>
   </energy>
  </scstep>
  <scstep>
   <time name="dav">    0.32    0.32</time>
   <time name="total">    0.32    0.32</time>
   <energy>
    <i name="e_fr_energy">     -9.33875091 </i>
    <i name="e_wo_entrp">     -9.33875091 </i>
    <i name="e_0_energy">     -9.33875091 </i>
   </energy>
  </scstep>
  <scstep>
   <time name="dav">    0.42    0.42</time>
   <time name="total">    0.46    0.46</time>
   <energy>
    <i name="e_fr_energy">     -9.37305009 </i>
    <i name="e_wo_entrp">     -9.37305009 </i>
    <i name="e_0_energy">     -9.37305009 </i>
   </energy>
  </scstep>
  <scstep>
   <time name="dav">    0.34    0.34</time>
   <time name="total">    0.43    0.43</time>
   <energy>
    <i name="e_fr_energy">     -8.97151461 </i>
    <i name="e_wo_entrp">     -8.97150664 </i>
    <i name="e_0_energy">     -8.97151062 </i>
   </energy>
  </scstep>
  <scstep>
   <time name="dav">    0.34    0.34</time>
   <time name="total">    0.43    0.44</time>
   <energy>
    <i name="e_fr_energy">     -8.88968446 </i>
    <i name="e_wo_entrp">     -8.88952991 </i>
    <i name="e_0_energy">     -8.88960718 </i>
   </energy>
  </scstep>
  <scstep>
   <time name="dav">    0.34    0.34</time>
   <time name="total">    0.43    0.43</time>
   <energy>
    <i name="e_fr_energy">     -8.89350280 </i>
    <i name="e_wo_entrp">     -8.89333622 </i>
    <i name="e_0_energy">     -8.89341951 </i>
   </energy>
  </scstep>
  <scstep>
   <time name="dav">    0.32    0.32</time>
   <time name="total">    0.42    0.42</time>
   <energy>
    <i name="e_fr_energy">     -8.89295270 </i>
    <i name="e_wo_entrp">     -8.89279841 </i>
    <i name="e_0_energy">     -8.89287555 </i>
   </energy>
  </scstep>
  <scstep>
   <time name="dav">    0.34    0.34</time>
   <time name="total">    0.44    0.44</time>
   <energy>
    <i name="e_fr_energy">     -8.89268059 </i>
    <i name="e_wo_entrp">     -8.89252144 </i>
    <i name="e_0_energy">     -8.89260101 </i>
   </energy>
  </scstep>
  <scstep>
   <time name="dav">    0.28    0.28</time>
   <time name="total">    0.37    0.37</time>
   <energy>
    <i name="e_fr_energy">     -8.89269565 </i>
    <i name="e_wo_entrp">     -8.89253622 </i>
    <i name="e_0_energy">     -8.89261594 </i>
   </energy>
  </scstep>
  <scstep>
   <time name="dav">    0.26    0.26</time>
   <time name="total">    0.32    0.32</time>
   <energy>
    <i name="alphaZ">    111.46983113 </i>
    <i name="ewald">  -2513.98178706 </i>
    <i name="hartreedc">  -1173.21041455 </i>
    <i name="XCdc">    127.14913351 </i>
    <i name="pawpsdc">   3329.16705853 </i>
    <i name="pawaedc">  -3475.00398801 </i>
    <i name="eentropy">     -0.00015895 </i>
    <i name="bandstr">   -568.26968216 </i>
    <i name="atom">   4153.78731487 </i>
    <i name="e_fr_energy">     -8.89269270 </i>
    <i name="e_wo_entrp">     -8.89253375 </i>
    <i name="e_0_energy">     -8.89261322 </i>
   </energy>
  </scstep>
  <structure>
   <crystal>
    <varray name="basis" >
     <v>       0.00000000       3.99835700       3.99835700 </v>
     <v>       3.99835700       0.00000000       3.99835700 </v>
     <v>       3.99835700       3.99835700       0.00000000 </v>
    </varray>
    <i name="volume">    127.84233678 </i>
    <varray name="rec_basis" >
     <v>      -0.12505136       0.12505136       0.12505136 </v>
     <v>       0.12505136      -0.12505136       0.12505136 </v>
     <v>       0.12505136       0.12505136      -0.12505136 </v>
    </varray>
   </crystal>
   <varray name="positions" >
    <v>       0.25000019       0.25000019       0.25000019 </v>
    <v>       0.00000000       0.00000000       0.00000000 </v>
    <v>       0.50000038       0.50000038       0.50000038 </v>
    <v>       0.74999931       0.74999931       0.74999931 </v>
   </varray>
  </structure>
  <varray name="forces" >
   <v>       0.00000000       0.00000000      -0.00000000 </v>
   <v>       0.00000000       0.00000000       0.00000000 </v>
   <v>       0.00000000       0.00000000      -0.00000000 </v>
   <v>      -0.00000000      -0.00000000      -0.00000000 </v>
  </varray>
  <varray name="stress" >
   <v>       7.50873963       0.00000000      -0.00000000 </v>
   <v>      -0.00000000       7.50873963      -0.00000000 </v>
   <v>      -0.00000000       0.00000000       7.50873963 </v>
  </varray>
  <energy>
   <i name="e_fr_energy">     -8.89269270 </i>
   <i name="e_wo_entrp">     -8.89261322 </i>
   <i name="e_0_energy">     -0.00015895 </i>
  </energy>
  <time name="totalsc">    5.07    5.08</time>
 </calculation>
 <calculation>
  <scstep>
   <time name="dav">    0.33    0.33</time>
   <time name="total">    0.42    0.42</time>
   <energy>
    <i name="alphaZ">    109.08787067 </i>
    <i name="ewald">  -2495.94589895 </i>
    <i name="hartreedc">  -1164.79559708 </i>
    <i name="XCdc">    126.05829146 </i>
    <i name="pawpsdc">   3329.14508461 </i>
    <i name="pawaedc">  -3474.98317972 </i>
    <i name="eentropy">     -0.00015291 </i>
    <i name="bandstr">   -591.40486485 </i>
    <i name="atom">   4153.78731487 </i>
    <i name="e_fr_energy">     -9.05113191 </i>
    <i name="e_wo_entrp">     -9.05097900 </i>
    <i name="e_0_energy">     -9.05105546 </i>
   </energy>
  </scstep>
  <scstep>
   <time name="dav">    0.31    0.31</time>
   <time name="total">    0.41    0.41</time>
   <energy>
    <i name="e_fr_energy">     -8.93085427 </i>
    <i name="e_wo_entrp">     -8.93070246 </i>
    <i name="e_0_energy">     -8.93077837 </i>
   </energy>
  </scstep>
  <scstep>
   <time name="dav">    0.34    0.34</time>
   <time name="total">    0.43    0.43</time>
   <energy>
    <i name="e_fr_energy">     -8.90260924 </i>
    <i name="e_wo_entrp">     -8.90245745 </i>
    <i name="e_0_energy">     -8.90253335 </i>
   </energy>
  </scstep>
  <scstep>
   <time name="dav">    0.40    0.40</time>
   <time name="total">    0.49    0.49</time>
   <energy>
    <i name="e_fr_energy">     -8.90223992 </i>
    <i name="e_wo_entrp">     -8.90208798 </i>
    <i name="e_0_energy">     -8.90216395 </i>
   </energy>
  </scstep>
  <scstep>
   <time name="dav">    0.36    0.36</time>
   <time name="total">    0.46    0.46</time>
   <energy>
    <i name="e_fr_energy">     -8.90213229 </i>
    <i name="e_wo_entrp">     -8.90198047 </i>
    <i name="e_0_energy">     -8.90205638 </i>
   </energy>
  </scstep>
  <scstep>
   <time name="dav">    0.31    0.31</time>
   <time name="total">    0.40    0.40</time>
   <energy>
    <i name="e_fr_energy">     -8.90207697 </i>
    <i name="e_wo_entrp">     -8.90192512 </i>
    <i name="e_0_energy">     -8.90200105 </i>
   </energy>
  </scstep>
  <scstep>
   <time name="dav">    0.25    0.25</time>
   <time name="total">    0.30    0.30</time>
   <energy>
    <i name="alphaZ">    109.08787067 </i>
    <i name="ewald">  -2495.94589895 </i>
    <i name="hartreedc">  -1184.39142097 </i>
    <i name="XCdc">    127.05858982 </i>
    <i name="pawpsdc">   3320.24673084 </i>
    <i name="pawaedc">  -3465.92750360 </i>
    <i name="eentropy">     -0.00015187 </i>
    <i name="bandstr">   -572.81760898 </i>
    <i name="atom">   4153.78731487 </i>
    <i name="e_fr_energy">     -8.90207818 </i>
    <i name="e_wo_entrp">     -8.90192630 </i>
    <i name="e_0_energy">     -8.90200224 </i>
   </energy>
  </scstep>
  <structure>
   <crystal>
    <varray name="basis" >
     <v>      -0.00000000       4.02724942       4.02724942 </v>
     <v>       4.02724942       0.00000000       4.02724942 </v>
     <v>       4.02724942       4.02724942      -0.00000000 </v>
    </varray>
    <i name="volume">    130.63380562 </i>
    <varray name="rec_basis" >
     <v>      -0.12415422       0.12415422       0.12415422 </v>
     <v>       0.12415422      -0.12415422       0.12415422 </v>
     <v>       0.12415422       0.12415422      -0.12415422 </v>
    </varray>
   </crystal>
   <varray name="positions" >
    <v>       0.25000019       0.25000019       0.25000019 </v>
    <v>       0.00000000       0.00000000       0.00000000 </v>
    <v>       0.50000038       0.50000038       0.50000038 </v>
    <v>       0.74999931       0.74999931       0.74999931 </v>
   </varray>
  </structure>
  <varray name="forces" >
   <v>      -0.00000000      -0.00000000      -0.00000000 </v>
   <v>      -0.00000000      -0.00000000      -0.00000000 </v>
   <v>       0.00000000       0.00000000       0.00000000 </v>
   <v>       0.00000000       0.00000000       0.00000000 </v>
  </varray>
  <varray name="stress" >
   <v>       3.79539138      -0.00000000      -0.00000000 </v>
   <v>       0.00000000       3.79539138       0.00000000 </v>
   <v>      -0.00000000      -0.00000000       3.79539138 </v>
  </varray>
  <energy>
   <i name="e_fr_energy">     -8.90207818 </i>
   <i name="e_wo_entrp">     -8.90200224 </i>
   <i name="e_0_energy">     -0.00015187 </i>
  </energy>
  <time name="totalsc">    3.35    3.37</time>
 </calculation>
 <calculation>
  <scstep>
   <time name="dav">    0.33    0.33</time>
   <time name="total">    0.42    0.42</time>
   <energy>
    <i name="alphaZ">    106.61771587 </i>
    <i name="ewald">  -2476.96272286 </i>
    <i name="hartreedc">  -1175.39269804 </i>
    <i name="XCdc">    125.90272013 </i>
    <i name="pawpsdc">   3319.93525627 </i>
    <i name="pawaedc">  -3465.62255958 </i>
    <i name="eentropy">     -0.00015326 </i>
    <i name="bandstr">   -597.33750474 </i>
    <i name="atom">   4153.78731487 </i>
    <i name="e_fr_energy">     -9.07263133 </i>
    <i name="e_wo_entrp">     -9.07247808 </i>
    <i name="e_0_energy">     -9.07255471 </i>
   </energy>
  </scstep>
  <scstep>
   <time name="dav">    0.31    0.31</time>
   <time name="total">    0.40    0.40</time>
   <energy>
    <i name="e_fr_energy">     -8.93736139 </i>
    <i name="e_wo_entrp">     -8.93720890 </i>
    <i name="e_0_energy">     -8.93728515 </i>
   </energy>
  </scstep>
  <scstep>
   <time name="dav">    0.34    0.34</time>
   <time name="total">    0.43    0.43</time>
   <energy>
    <i name="e_fr_energy">     -8.90559704 </i>
    <i name="e_wo_entrp">     -8.90544465 </i>
    <i name="e_0_energy">     -8.90552084 </i>
   </energy>
  </scstep>
  <scstep>
   <time name="dav">    0.40    0.40</time>
   <time name="total">    0.49    0.49</time>
   <energy>
    <i name="e_fr_energy">     -8.90516997 </i>
    <i name="e_wo_entrp">     -8.90501748 </i>
    <i name="e_0_energy">     -8.90509373 </i>
   </energy>
  </scstep>
  <scstep>
   <time name="dav">    0.37    0.37</time>
   <time name="total">    0.46    0.46</time>
   <energy>
    <i name="e_fr_energy">     -8.90504643 </i>
    <i name="e_wo_entrp">     -8.90489401 </i>
    <i name="e_0_energy">     -8.90497022 </i>
   </energy>
  </scstep>
  <scstep>
   <time name="dav">    0.31    0.31</time>
   <time name="total">    0.40    0.40</time>
   <energy>
    <i name="e_fr_energy">     -8.90498793 </i>
    <i name="e_wo_entrp">     -8.90483549 </i>
    <i name="e_0_energy">     -8.90491171 </i>
   </energy>
  </scstep>
  <scstep>
   <time name="dav">    0.24    0.24</time>
   <time name="total">    0.29    0.29</time>
   <energy>
    <i name="alphaZ">    106.61771587 </i>
    <i name="ewald">  -2476.96272286 </i>
    <i name="hartreedc">  -1196.23876558 </i>
    <i name="XCdc">    126.96478603 </i>
    <i name="pawpsdc">   3310.85510874 </i>
    <i name="pawaedc">  -3456.38127258 </i>
    <i name="eentropy">     -0.00015246 </i>
    <i name="bandstr">   -577.54700135 </i>
    <i name="atom">   4153.78731487 </i>
    <i name="e_fr_energy">     -8.90498932 </i>
    <i name="e_wo_entrp">     -8.90483686 </i>
    <i name="e_0_energy">     -8.90491309 </i>
   </energy>
  </scstep>
  <structure>
   <crystal>
    <varray name="basis" >
     <v>      -0.00000000       4.05811383       4.05811383 </v>
     <v>       4.05811383       0.00000000       4.05811383 </v>
     <v>       4.05811383       4.05811383      -0.00000000 </v>
    </varray>
    <i name="volume">    133.66037319 </i>
    <varray name="rec_basis" >
     <v>      -0.12320995       0.12320995       0.12320995 </v>
     <v>       0.12320995      -0.12320995       0.12320995 </v>
     <v>       0.12320995       0.12320995      -0.12320995 </v>
    </varray>
   </crystal>
   <varray name="positions" >
    <v>       0.25000019       0.25000019       0.25000019 </v>
    <v>       0.00000000       0.00000000       0.00000000 </v>
    <v>       0.50000038       0.50000038       0.50000038 </v>
    <v>       0.74999931       0.74999931       0.74999931 </v>
   </varray>
  </structure>
  <varray name="forces" >
   <v>      -0.00000000       0.00000000       0.00000000 </v>
   <v>       0.00000000       0.00000000       0.00000000 </v>
   <v>      -0.00000000      -0.00000000       0.00000000 </v>
   <v>      -0.00000000      -0.00000000      -0.00000000 </v>
  </varray>
  <varray name="stress" >
   <v>      -0.10245419      -0.00000000      -0.00000000 </v>
   <v>      -0.00000000      -0.10245419      -0.00000000 </v>
   <v>       0.00000000       0.00000000      -0.10245419 </v>
  </varray>
  <energy>
   <i name="e_fr_energy">     -8.90498932 </i>
   <i name="e_wo_entrp">     -8.90491309 </i>
   <i name="e_0_energy">     -0.00015246 </i>
  </energy>
  <time name="totalsc">    3.35    3.36</time>
 </calculation>
 <calculation>
  <scstep>
   <time name="dav">    0.34    0.34</time>
   <time name="total">    0.43    0.43</time>
   <energy>
    <i name="alphaZ">    106.68312671 </i>
    <i name="ewald">  -2477.46916492 </i>
    <i name="hartreedc">  -1196.48741900 </i>
    <i name="XCdc">    126.99574795 </i>
    <i name="pawpsdc">   3310.51867759 </i>
    <i name="pawaedc">  -3456.05072151 </i>
    <i name="eentropy">     -0.00015241 </i>
    <i name="bandstr">   -576.88253273 </i>
    <i name="atom">   4153.78731487 </i>
    <i name="e_fr_energy">     -8.90512345 </i>
    <i name="e_wo_entrp">     -8.90497104 </i>
    <i name="e_0_energy">     -8.90504724 </i>
   </energy>
  </scstep>
  <scstep>
   <time name="dav">    0.34    0.34</time>
   <time name="total">    0.43    0.43</time>
   <energy>
    <i name="e_fr_energy">     -8.90502278 </i>
    <i name="e_wo_entrp">     -8.90487035 </i>
    <i name="e_0_energy">     -8.90494657 </i>
   </energy>
  </scstep>
  <scstep>
   <time name="dav">    0.31    0.31</time>
   <time name="total">    0.40    0.40</time>
   <energy>
    <i name="e_fr_energy">     -8.90500100 </i>
    <i name="e_wo_entrp">     -8.90484857 </i>
    <i name="e_0_energy">     -8.90492479 </i>
   </energy>
  </scstep>
  <scstep>
   <time name="dav">    0.21    0.21</time>
   <time name="total">    0.30    0.30</time>
   <energy>
    <i name="e_fr_energy">     -8.90500185 </i>
    <i name="e_wo_entrp">     -8.90484942 </i>
    <i name="e_0_energy">     -8.90492564 </i>
   </energy>
  </scstep>
  <scstep>
   <time name="dav">    0.21    0.21</time>
   <time name="total">    0.26    0.26</time>
   <energy>
    <i name="alphaZ">    106.68312671 </i>
    <i name="ewald">  -2477.46916492 </i>
    <i name="hartreedc">  -1195.92576579 </i>
    <i name="XCdc">    126.96701782 </i>
    <i name="pawpsdc">   3310.63135339 </i>
    <i name="pawaedc">  -3456.16696456 </i>
    <i name="eentropy">     -0.00015243 </i>
    <i name="bandstr">   -577.41176794 </i>
    <i name="atom">   4153.78731487 </i>
    <i name="e_fr_energy">     -8.90500286 </i>
    <i name="e_wo_entrp">     -8.90485043 </i>
    <i name="e_0_energy">     -8.90492665 </i>
   </energy>
  </scstep>
  <structure>
   <crystal>
    <varray name="basis" >
     <v>      -0.00000000       4.05728427       4.05728427 </v>
     <v>       4.05728427       0.00000000       4.05728427 </v>
     <v>       4.05728427       4.05728427      -0.00000000 </v>
    </varray>
    <i name="volume">    133.57842173 </i>
    <varray name="rec_basis" >
     <v>      -0.12323514       0.12323514       0.12323514 </v>
     <v>       0.12323514      -0.12323514       0.12323514 </v>
     <v>       0.12323514       0.12323514      -0.12323514 </v>
    </varray>
   </crystal>
   <varray name="positions" >
    <v>       0.25000019       0.25000019       0.25000019 </v>
    <v>       0.00000000       0.00000000       0.00000000 </v>
    <v>       0.50000038       0.50000038       0.50000038 </v>
    <v>       0.74999931       0.74999931       0.74999931 </v>
   </varray>
  </structure>
  <varray name="forces" >
   <v>       0.00000000      -0.00000000      -0.00000000 </v>
   <v>       0.00000000       0.00000000       0.00000000 </v>
   <v>      -0.00000000      -0.00000000      -0.00000000 </v>
   <v>       0.00000000       0.00000000       0.00000000 </v>
  </varray>
  <varray name="stress" >
   <v>      -0.14806338       0.00000000      -0.00000000 </v>
   <v>       0.00000000      -0.14806338      -0.00000000 </v>
   <v>      -0.00000000       0.00000000      -0.14806338 </v>
  </varray>
  <energy>
   <i name="e_fr_energy">     -8.90500286 </i>
   <i name="e_wo_entrp">     -8.90492665 </i>
   <i name="e_0_energy">     -0.00015243 </i>
  </energy>
  <time name="totalsc">    2.27    2.28</time>
 </calculation>
 <calculation>
  <scstep>
   <time name="dav">    0.32    0.33</time>
   <time name="total">    0.42    0.42</time>
   <energy>
    <i name="alphaZ">    107.87656493 </i>
    <i name="ewald">  -2486.67321048 </i>
    <i name="hartreedc">  -1200.37294353 </i>
    <i name="XCdc">    127.53235046 </i>
    <i name="pawpsdc">   3310.64410375 </i>
    <i name="pawaedc">  -3456.17993419 </i>
    <i name="eentropy">     -0.00015182 </i>
    <i name="bandstr">   -565.55853634 </i>
    <i name="atom">   4153.78731487 </i>
    <i name="e_fr_energy">     -8.94444235 </i>
    <i name="e_wo_entrp">     -8.94429053 </i>
    <i name="e_0_energy">     -8.94436644 </i>
   </energy>
  </scstep>
  <scstep>
   <time name="dav">    0.32    0.32</time>
   <time name="total">    0.41    0.41</time>
   <energy>
    <i name="e_fr_energy">     -8.91177862 </i>
    <i name="e_wo_entrp">     -8.91162656 </i>
    <i name="e_0_energy">     -8.91170259 </i>
   </energy>
  </scstep>
  <scstep>
   <time name="dav">    0.34    0.34</time>
   <time name="total">    0.43    0.43</time>
   <energy>
    <i name="e_fr_energy">     -8.90444194 </i>
    <i name="e_wo_entrp">     -8.90428985 </i>
    <i name="e_0_energy">     -8.90436590 </i>
   </energy>
  </scstep>
  <scstep>
   <time name="dav">    0.40    0.40</time>
   <time name="total">    0.49    0.49</time>
   <energy>
    <i name="e_fr_energy">     -8.90438587 </i>
    <i name="e_wo_entrp">     -8.90423382 </i>
    <i name="e_0_energy">     -8.90430984 </i>
   </energy>
  </scstep>
  <scstep>
   <time name="dav">    0.34    0.34</time>
   <time name="total">    0.44    0.44</time>
   <energy>
    <i name="e_fr_energy">     -8.90438850 </i>
    <i name="e_wo_entrp">     -8.90423642 </i>
    <i name="e_0_energy">     -8.90431246 </i>
   </energy>
  </scstep>
  <scstep>
   <time name="dav">    0.31    0.31</time>
   <time name="total">    0.36    0.36</time>
   <energy>
    <i name="alphaZ">    107.87656493 </i>
    <i name="ewald">  -2486.67321048 </i>
    <i name="hartreedc">  -1190.18342145 </i>
    <i name="XCdc">    127.01280090 </i>
    <i name="pawpsdc">   3314.80046526 </i>
    <i name="pawaedc">  -3460.41096820 </i>
    <i name="eentropy">     -0.00015207 </i>
    <i name="bandstr">   -575.11377742 </i>
    <i name="atom">   4153.78731487 </i>
    <i name="e_fr_energy">     -8.90438366 </i>
    <i name="e_wo_entrp">     -8.90423159 </i>
    <i name="e_0_energy">     -8.90430763 </i>
   </energy>
  </scstep>
  <structure>
   <crystal>
    <varray name="basis" >
     <v>      -0.00000000       4.04226685       4.04226685 </v>
     <v>       4.04226685       0.00000000       4.04226685 </v>
     <v>       4.04226685       4.04226685      -0.00000000 </v>
    </varray>
    <i name="volume">    132.10064393 </i>
    <varray name="rec_basis" >
     <v>      -0.12369297       0.12369297       0.12369297 </v>
     <v>       0.12369297      -0.12369297       0.12369297 </v>
     <v>       0.12369297       0.12369297      -0.12369297 </v>
    </varray>
   </crystal>
   <varray name="positions" >
    <v>       0.25000019       0.25000019       0.25000019 </v>
    <v>       0.00000000       0.00000000       0.00000000 </v>
    <v>       0.50000038       0.50000038       0.50000038 </v>
    <v>       0.74999931       0.74999931       0.74999931 </v>
   </varray>
  </structure>
  <varray name="forces" >
   <v>      -0.00000000       0.00000000      -0.00000000 </v>
   <v>      -0.00000000      -0.00000000      -0.00000000 </v>
   <v>       0.00000000       0.00000000      -0.00000000 </v>
   <v>       0.00000000       0.00000000       0.00000000 </v>
  </varray>
  <varray name="stress" >
   <v>       1.46550885      -0.00000000      -0.00000000 </v>
   <v>      -0.00000000       1.46550885       0.00000000 </v>
   <v>       0.00000000       0.00000000       1.46550885 </v>
  </varray>
  <energy>
   <i name="e_fr_energy">     -8.90438366 </i>
   <i name="e_wo_entrp">     -8.90430763 </i>
   <i name="e_0_energy">     -0.00015207 </i>
  </energy>
  <time name="totalsc">    2.99    3.01</time>
 </calculation>
 <calculation>
  <scstep>
   <time name="dav">    0.33    0.33</time>
   <time name="total">    0.42    0.42</time>
   <energy>
    <i name="alphaZ">    106.79300709 </i>
    <i name="ewald">  -2478.31944571 </i>
    <i name="hartreedc">  -1186.17985296 </i>
    <i name="XCdc">    126.50167902 </i>
    <i name="pawpsdc">   3314.97226215 </i>
    <i name="pawaedc">  -3460.58280559 </i>
    <i name="eentropy">     -0.00015271 </i>
    <i name="bandstr">   -585.90980935 </i>
    <i name="atom">   4153.78731487 </i>
    <i name="e_fr_energy">     -8.93780319 </i>
    <i name="e_wo_entrp">     -8.93765048 </i>
    <i name="e_0_energy">     -8.93772684 </i>
   </energy>
  </scstep>
  <scstep>
   <time name="dav">    0.31    0.31</time>
   <time name="total">    0.41    0.41</time>
   <energy>
    <i name="e_fr_energy">     -8.91131000 </i>
    <i name="e_wo_entrp">     -8.91115759 </i>
    <i name="e_0_energy">     -8.91123379 </i>
   </energy>
  </scstep>
  <scstep>
   <time name="dav">    0.33    0.33</time>
   <time name="total">    0.43    0.43</time>
   <energy>
    <i name="e_fr_energy">     -8.90514959 </i>
    <i name="e_wo_entrp">     -8.90499723 </i>
    <i name="e_0_energy">     -8.90507341 </i>
   </energy>
  </scstep>
  <scstep>
   <time name="dav">    0.40    0.40</time>
   <time name="total">    0.49    0.49</time>
   <energy>
    <i name="e_fr_energy">     -8.90505960 </i>
    <i name="e_wo_entrp">     -8.90490719 </i>
    <i name="e_0_energy">     -8.90498339 </i>
   </energy>
  </scstep>
  <scstep>
   <time name="dav">    0.36    0.36</time>
   <time name="total">    0.45    0.45</time>
   <energy>
    <i name="e_fr_energy">     -8.90502733 </i>
    <i name="e_wo_entrp">     -8.90487495 </i>
    <i name="e_0_energy">     -8.90495114 </i>
   </energy>
  </scstep>
  <scstep>
   <time name="dav">    0.30    0.30</time>
   <time name="total">    0.39    0.39</time>
   <energy>
    <i name="e_fr_energy">     -8.90501355 </i>
    <i name="e_wo_entrp">     -8.90486116 </i>
    <i name="e_0_energy">     -8.90493736 </i>
   </energy>
  </scstep>
  <scstep>
   <time name="dav">    0.21    0.21</time>
   <time name="total">    0.27    0.27</time>
   <energy>
    <i name="alphaZ">    106.79300709 </i>
    <i name="ewald">  -2478.31944571 </i>
    <i name="hartreedc">  -1195.39857310 </i>
    <i name="XCdc">    126.97160971 </i>
    <i name="pawpsdc">   3311.29515171 </i>
    <i name="pawaedc">  -3456.83539239 </i>
    <i name="eentropy">     -0.00015239 </i>
    <i name="bandstr">   -577.19853434 </i>
    <i name="atom">   4153.78731487 </i>
    <i name="e_fr_energy">     -8.90501455 </i>
    <i name="e_wo_entrp">     -8.90486216 </i>
    <i name="e_0_energy">     -8.90493836 </i>
   </energy>
  </scstep>
  <structure>
   <crystal>
    <varray name="basis" >
     <v>      -0.00000000       4.05589227       4.05589227 </v>
     <v>       4.05589227       0.00000000       4.05589227 </v>
     <v>       4.05589227       4.05589227      -0.00000000 </v>
    </varray>
    <i name="volume">    133.44098158 </i>
    <varray name="rec_basis" >
     <v>      -0.12327744       0.12327744       0.12327744 </v>
     <v>       0.12327744      -0.12327744       0.12327744 </v>
     <v>       0.12327744       0.12327744      -0.12327744 </v>
    </varray>
   </crystal>
   <varray name="positions" >
    <v>       0.25000019       0.25000019       0.25000019 </v>
    <v>       0.00000000       0.00000000       0.00000000 </v>
    <v>       0.50000038       0.50000038       0.50000038 </v>
    <v>       0.74999931       0.74999931       0.74999931 </v>
   </varray>
  </structure>
  <varray name="forces" >
   <v>       0.00000000       0.00000000      -0.00000000 </v>
   <v>       0.00000000       0.00000000       0.00000000 </v>
   <v>      -0.00000000      -0.00000000      -0.00000000 </v>
   <v>       0.00000000      -0.00000000       0.00000000 </v>
  </varray>
  <varray name="stress" >
   <v>      -0.05092883       0.00000000       0.00000000 </v>
   <v>       0.00000000      -0.05092883       0.00000000 </v>
   <v>       0.00000000      -0.00000000      -0.05092883 </v>
  </varray>
  <energy>
   <i name="e_fr_energy">     -8.90501455 </i>
   <i name="e_wo_entrp">     -8.90493836 </i>
   <i name="e_0_energy">     -0.00015239 </i>
  </energy>
  <time name="totalsc">    3.31    3.32</time>
 </calculation>
 <calculation>
  <scstep>
   <time name="dav">    0.33    0.33</time>
   <time name="total">    0.42    0.43</time>
   <energy>
    <i name="alphaZ">    106.84863511 </i>
    <i name="ewald">  -2478.74968631 </i>
    <i name="hartreedc">  -1195.60399438 </i>
    <i name="XCdc">    126.99780585 </i>
    <i name="pawpsdc">   3311.16394278 </i>
    <i name="pawaedc">  -3456.70554507 </i>
    <i name="eentropy">     -0.00015236 </i>
    <i name="bandstr">   -576.64342258 </i>
    <i name="atom">   4153.78731487 </i>
    <i name="e_fr_energy">     -8.90510208 </i>
    <i name="e_wo_entrp">     -8.90494972 </i>
    <i name="e_0_energy">     -8.90502590 </i>
   </energy>
  </scstep>
  <scstep>
   <time name="dav">    0.33    0.33</time>
   <time name="total">    0.42    0.42</time>
   <energy>
    <i name="e_fr_energy">     -8.90502893 </i>
    <i name="e_wo_entrp">     -8.90487656 </i>
    <i name="e_0_energy">     -8.90495275 </i>
   </energy>
  </scstep>
  <scstep>
   <time name="dav">    0.29    0.29</time>
   <time name="total">    0.38    0.38</time>
   <energy>
    <i name="e_fr_energy">     -8.90501321 </i>
    <i name="e_wo_entrp">     -8.90486084 </i>
    <i name="e_0_energy">     -8.90493702 </i>
   </energy>
  </scstep>
  <scstep>
   <time name="dav">    0.21    0.21</time>
   <time name="total">    0.30    0.30</time>
   <energy>
    <i name="e_fr_energy">     -8.90501396 </i>
    <i name="e_wo_entrp">     -8.90486158 </i>
    <i name="e_0_energy">     -8.90493777 </i>
   </energy>
  </scstep>
  <scstep>
   <time name="dav">    0.21    0.21</time>
   <time name="total">    0.26    0.26</time>
   <energy>
    <i name="alphaZ">    106.84863511 </i>
    <i name="ewald">  -2478.74968631 </i>
    <i name="hartreedc">  -1195.12729236 </i>
    <i name="XCdc">    126.97341279 </i>
    <i name="pawpsdc">   3311.27690767 </i>
    <i name="pawaedc">  -3456.82344617 </i>
    <i name="eentropy">     -0.00015237 </i>
    <i name="bandstr">   -577.09070813 </i>
    <i name="atom">   4153.78731487 </i>
    <i name="e_fr_energy">     -8.90501491 </i>
    <i name="e_wo_entrp">     -8.90486253 </i>
    <i name="e_0_energy">     -8.90493872 </i>
   </energy>
  </scstep>
  <structure>
   <crystal>
    <varray name="basis" >
     <v>      -0.00000000       4.05518828       4.05518828 </v>
     <v>       4.05518828       0.00000000       4.05518828 </v>
     <v>       4.05518828       4.05518828      -0.00000000 </v>
    </varray>
    <i name="volume">    133.37150894 </i>
    <varray name="rec_basis" >
     <v>      -0.12329884       0.12329884       0.12329884 </v>
     <v>       0.12329884      -0.12329884       0.12329884 </v>
     <v>       0.12329884       0.12329884      -0.12329884 </v>
    </varray>
   </crystal>
   <varray name="positions" >
    <v>       0.25000019       0.25000019       0.25000019 </v>
    <v>       0.00000000       0.00000000       0.00000000 </v>
    <v>       0.50000038       0.50000038       0.50000038 </v>
    <v>       0.74999931       0.74999931       0.74999931 </v>
   </varray>
  </structure>
  <varray name="forces" >
   <v>       0.00000000       0.00000000       0.00000000 </v>
   <v>      -0.00000000      -0.00000000      -0.00000000 </v>
   <v>       0.00000000       0.00000000       0.00000000 </v>
   <v>      -0.00000000      -0.00000000      -0.00000000 </v>
  </varray>
  <varray name="stress" >
   <v>       0.05204652       0.00000000      -0.00000000 </v>
   <v>       0.00000000       0.05204652      -0.00000000 </v>
   <v>       0.00000000      -0.00000000       0.05204652 </v>
  </varray>
  <energy>
   <i name="e_fr_energy">     -8.90501491 </i>
   <i name="e_wo_entrp">     -8.90493872 </i>
   <i name="e_0_energy">     -0.00015237 </i>
  </energy>
  <time name="totalsc">    2.24    2.25</time>
 </calculation>
 <calculation>
  <scstep>
   <time name="dav">    0.33    0.33</time>
   <time name="total">    0.42    0.43</time>
   <energy>
    <i name="alphaZ">    106.82052162 </i>
    <i name="ewald">  -2478.53226845 </i>
    <i name="hartreedc">  -1195.02416348 </i>
    <i name="XCdc">    126.96018426 </i>
    <i name="pawpsdc">   3311.27740993 </i>
    <i name="pawaedc">  -3456.82368441 </i>
    <i name="eentropy">     -0.00015239 </i>
    <i name="bandstr">   -577.37019998 </i>
    <i name="atom">   4153.78731487 </i>
    <i name="e_fr_energy">     -8.90503804 </i>
    <i name="e_wo_entrp">     -8.90488565 </i>
    <i name="e_0_energy">     -8.90496184 </i>
   </energy>
  </scstep>
  <scstep>
   <time name="dav">    0.28    0.28</time>
   <time name="total">    0.37    0.37</time>
   <energy>
    <i name="e_fr_energy">     -8.90502096 </i>
    <i name="e_wo_entrp">     -8.90486858 </i>
    <i name="e_0_energy">     -8.90494477 </i>
   </energy>
  </scstep>
  <scstep>
   <time name="dav">    0.21    0.21</time>
   <time name="total">    0.30    0.30</time>
   <energy>
    <i name="e_fr_energy">     -8.90501640 </i>
    <i name="e_wo_entrp">     -8.90486402 </i>
    <i name="e_0_energy">     -8.90494021 </i>
   </energy>
  </scstep>
  <scstep>
   <time name="dav">    0.21    0.21</time>
   <time name="total">    0.30    0.30</time>
   <energy>
    <i name="e_fr_energy">     -8.90501568 </i>
    <i name="e_wo_entrp">     -8.90486329 </i>
    <i name="e_0_energy">     -8.90493948 </i>
   </energy>
  </scstep>
  <scstep>
   <time name="dav">    0.21    0.21</time>
   <time name="total">    0.26    0.26</time>
   <energy>
    <i name="alphaZ">    106.82052162 </i>
    <i name="ewald">  -2478.53226845 </i>
    <i name="hartreedc">  -1195.26644658 </i>
    <i name="XCdc">    126.97251753 </i>
    <i name="pawpsdc">   3311.18282917 </i>
    <i name="pawaedc">  -3456.72643699 </i>
    <i name="eentropy">     -0.00015238 </i>
    <i name="bandstr">   -577.14289432 </i>
    <i name="atom">   4153.78731487 </i>
    <i name="e_fr_energy">     -8.90501553 </i>
    <i name="e_wo_entrp">     -8.90486315 </i>
    <i name="e_0_energy">     -8.90493934 </i>
   </energy>
  </scstep>
  <structure>
   <crystal>
    <varray name="basis" >
     <v>      -0.00000000       4.05554400       4.05554400 </v>
     <v>       4.05554400       0.00000000       4.05554400 </v>
     <v>       4.05554400       4.05554400      -0.00000000 </v>
    </varray>
    <i name="volume">    133.40661022 </i>
    <varray name="rec_basis" >
     <v>      -0.12328802       0.12328802       0.12328802 </v>
     <v>       0.12328802      -0.12328802       0.12328802 </v>
     <v>       0.12328802       0.12328802      -0.12328802 </v>
    </varray>
   </crystal>
   <varray name="positions" >
    <v>       0.25000019       0.25000019       0.25000019 </v>
    <v>       0.00000000       0.00000000       0.00000000 </v>
    <v>       0.50000038       0.50000038       0.50000038 </v>
    <v>       0.74999931       0.74999931       0.74999931 </v>
   </varray>
  </structure>
  <varray name="forces" >
   <v>       0.00000000      -0.00000000       0.00000000 </v>
   <v>       0.00000000       0.00000000       0.00000000 </v>
   <v>      -0.00000000      -0.00000000      -0.00000000 </v>
   <v>      -0.00000000       0.00000000      -0.00000000 </v>
  </varray>
  <varray name="stress" >
   <v>      -0.04965797      -0.00000000       0.00000000 </v>
   <v>       0.00000000      -0.04965797      -0.00000000 </v>
   <v>       0.00000000       0.00000000      -0.04965797 </v>
  </varray>
  <energy>
   <i name="e_fr_energy">     -8.90501553 </i>
   <i name="e_wo_entrp">     -8.90493934 </i>
   <i name="e_0_energy">     -0.00015238 </i>
  </energy>
  <time name="totalsc">    2.11    2.12</time>
 </calculation>
 <calculation>
  <scstep>
   <time name="dav">    0.28    0.28</time>
   <time name="total">    0.37    0.37</time>
   <energy>
    <i name="alphaZ">    106.83457713 </i>
    <i name="ewald">  -2478.64097261 </i>
    <i name="hartreedc">  -1195.31717685 </i>
    <i name="XCdc">    126.97911388 </i>
    <i name="pawpsdc">   3311.19083654 </i>
    <i name="pawaedc">  -3456.73378797 </i>
    <i name="eentropy">     -0.00015238 </i>
    <i name="bandstr">   -577.00477317 </i>
    <i name="atom">   4153.78731487 </i>
    <i name="e_fr_energy">     -8.90502056 </i>
    <i name="e_wo_entrp">     -8.90486818 </i>
    <i name="e_0_energy">     -8.90494437 </i>
   </energy>
  </scstep>
  <scstep>
   <time name="dav">    0.21    0.21</time>
   <time name="total">    0.30    0.30</time>
   <energy>
    <i name="e_fr_energy">     -8.90501564 </i>
    <i name="e_wo_entrp">     -8.90486326 </i>
    <i name="e_0_energy">     -8.90493945 </i>
   </energy>
  </scstep>
  <scstep>
   <time name="dav">    0.21    0.21</time>
   <time name="total">    0.30    0.30</time>
   <energy>
    <i name="e_fr_energy">     -8.90501480 </i>
    <i name="e_wo_entrp">     -8.90486242 </i>
    <i name="e_0_energy">     -8.90493861 </i>
   </energy>
  </scstep>
  <scstep>
   <time name="dav">    0.21    0.21</time>
   <time name="total">    0.30    0.30</time>
   <energy>
    <i name="e_fr_energy">     -8.90501517 </i>
    <i name="e_wo_entrp">     -8.90486279 </i>
    <i name="e_0_energy">     -8.90493898 </i>
   </energy>
  </scstep>
  <scstep>
   <time name="dav">    0.21    0.21</time>
   <time name="total">    0.26    0.26</time>
   <energy>
    <i name="alphaZ">    106.83457713 </i>
    <i name="ewald">  -2478.64097261 </i>
    <i name="hartreedc">  -1195.19776553 </i>
    <i name="XCdc">    126.97303132 </i>
    <i name="pawpsdc">   3311.25170957 </i>
    <i name="pawaedc">  -3456.79640977 </i>
    <i name="eentropy">     -0.00015238 </i>
    <i name="bandstr">   -577.11634787 </i>
    <i name="atom">   4153.78731487 </i>
    <i name="e_fr_energy">     -8.90501527 </i>
    <i name="e_wo_entrp">     -8.90486289 </i>
    <i name="e_0_energy">     -8.90493908 </i>
   </energy>
  </scstep>
  <structure>
   <crystal>
    <varray name="basis" >
     <v>      -0.00000000       4.05536614       4.05536614 </v>
     <v>       4.05536614       0.00000000       4.05536614 </v>
     <v>       4.05536614       4.05536614      -0.00000000 </v>
    </varray>
    <i name="volume">    133.38905881 </i>
    <varray name="rec_basis" >
     <v>      -0.12329343       0.12329343       0.12329343 </v>
     <v>       0.12329343      -0.12329343       0.12329343 </v>
     <v>       0.12329343       0.12329343      -0.12329343 </v>
    </varray>
   </crystal>
   <varray name="positions" >
    <v>       0.25000019       0.25000019       0.25000019 </v>
    <v>       0.00000000       0.00000000       0.00000000 </v>
    <v>       0.50000038       0.50000038       0.50000038 </v>
    <v>       0.74999931       0.74999931       0.74999931 </v>
   </varray>
  </structure>
  <varray name="forces" >
   <v>       0.00000000      -0.00000000      -0.00000000 </v>
   <v>       0.00000000      -0.00000000      -0.00000000 </v>
   <v>      -0.00000000       0.00000000       0.00000000 </v>
   <v>      -0.00000000       0.00000000       0.00000000 </v>
  </varray>
  <varray name="stress" >
   <v>       0.01171246       0.00000000      -0.00000000 </v>
   <v>       0.00000000       0.01171246      -0.00000000 </v>
   <v>      -0.00000000       0.00000000       0.01171246 </v>
  </varray>
  <energy>
   <i name="e_fr_energy">     -8.90501527 </i>
   <i name="e_wo_entrp">     -8.90493908 </i>
   <i name="e_0_energy">     -0.00015238 </i>
  </energy>
  <time name="totalsc">    1.94    1.95</time>
  <eigenvalues>
   <array>
    <dimension dim="1">band</dimension>
    <dimension dim="2">kpoint</dimension>
    <dimension dim="3">spin</dimension>
    <field>eigene</field>
    <field>occ</field>
    <set>
     <set comment="spin 1">
      <set comment="kpoint 1">
       <r>  -25.6067    1.0000 </r>
       <r>  -22.3841    1.0000 </r>
       <r>  -22.3841    1.0000 </r>
       <r>  -22.3841    1.0000 </r>
       <r>  -22.3773    1.0000 </r>
       <r>  -22.3773    1.0000 </r>
       <r>  -22.3773    1.0000 </r>
       <r>  -19.1101    1.0000 </r>
       <r>  -19.1101    1.0000 </r>
       <r>  -19.1101    1.0000 </r>
       <r>  -19.1088    1.0000 </r>
       <r>  -19.1088    1.0000 </r>
       <r>   -9.7507    1.0000 </r>
       <r>   -9.7507    1.0000 </r>
       <r>   -9.7507    1.0000 </r>
       <r>   -7.2822    1.0000 </r>
       <r>    2.0110    1.0000 </r>
       <r>    2.1726    0.6680 </r>
       <r>    2.1726    0.6680 </r>
       <r>    2.1726    0.6679 </r>
       <r>    4.5399    0.0000 </r>
       <r>    4.5399    0.0000 </r>
       <r>    4.5399    0.0000 </r>
      </set>
      <set comment="kpoint 2">
       <r>  -25.6067    1.0000 </r>
       <r>  -22.3838    1.0000 </r>
       <r>  -22.3838    1.0000 </r>
       <r>  -22.3838    1.0000 </r>
       <r>  -22.3775    1.0000 </r>
       <r>  -22.3775    1.0000 </r>
       <r>  -22.3775    1.0000 </r>
       <r>  -19.1101    1.0000 </r>
       <r>  -19.1100    1.0000 </r>
       <r>  -19.1100    1.0000 </r>
       <r>  -19.1088    1.0000 </r>
       <r>  -19.1088    1.0000 </r>
       <r>   -9.7617    1.0000 </r>
       <r>   -9.7509    1.0000 </r>
       <r>   -9.7509    1.0000 </r>
       <r>   -7.2506    1.0000 </r>
       <r>    1.2400    1.0000 </r>
       <r>    2.0643    0.9998 </r>
       <r>    2.0643    0.9998 </r>
       <r>    2.9150    0.0000 </r>
       <r>    4.6356    0.0000 </r>
       <r>    4.6989    0.0000 </r>
       <r>    4.6989    0.0000 </r>
      </set>
      <set comment="kpoint 3">
       <r>  -25.6066    1.0000 </r>
       <r>  -22.3831    1.0000 </r>
       <r>  -22.3831    1.0000 </r>
       <r>  -22.3830    1.0000 </r>
       <r>  -22.3783    1.0000 </r>
       <r>  -22.3783    1.0000 </r>
       <r>  -22.3780    1.0000 </r>
       <r>  -19.1102    1.0000 </r>
       <r>  -19.1100    1.0000 </r>
       <r>  -19.1100    1.0000 </r>
       <r>  -19.1088    1.0000 </r>
       <r>  -19.1088    1.0000 </r>
       <r>   -9.7872    1.0000 </r>
       <r>   -9.7515    1.0000 </r>
       <r>   -9.7515    1.0000 </r>
       <r>   -7.1745    1.0000 </r>
       <r>    0.5450    1.0000 </r>
       <r>    1.8445    1.0000 </r>
       <r>    1.8446    1.0000 </r>
       <r>    3.3671    0.0000 </r>
       <r>    5.0907    0.0000 </r>
       <r>    5.0907    0.0000 </r>
       <r>    5.2397    0.0000 </r>
      </set>
      <set comment="kpoint 4">
       <r>  -25.6064    1.0000 </r>
       <r>  -22.3820    1.0000 </r>
       <r>  -22.3820    1.0000 </r>
       <r>  -22.3819    1.0000 </r>
       <r>  -22.3794    1.0000 </r>
       <r>  -22.3794    1.0000 </r>
       <r>  -22.3790    1.0000 </r>
       <r>  -19.1104    1.0000 </r>
       <r>  -19.1099    1.0000 </r>
       <r>  -19.1099    1.0000 </r>
       <r>  -19.1088    1.0000 </r>
       <r>  -19.1088    1.0000 </r>
       <r>   -9.8114    1.0000 </r>
       <r>   -9.7521    1.0000 </r>
       <r>   -9.7521    1.0000 </r>
       <r>   -7.0985    1.0000 </r>
       <r>    0.0883    1.0000 </r>
       <r>    1.6629    1.0000 </r>
       <r>    1.6629    1.0000 </r>
       <r>    3.5345    0.0000 </r>
       <r>    5.5978    0.0000 </r>
       <r>    5.5978    0.0000 </r>
       <r>    6.1319    0.0000 </r>
      </set>
      <set comment="kpoint 5">
       <r>  -25.6064    1.0000 </r>
       <r>  -22.3809    1.0000 </r>
       <r>  -22.3809    1.0000 </r>
       <r>  -22.3809    1.0000 </r>
       <r>  -22.3805    1.0000 </r>
       <r>  -22.3805    1.0000 </r>
       <r>  -22.3798    1.0000 </r>
       <r>  -19.1105    1.0000 </r>
       <r>  -19.1099    1.0000 </r>
       <r>  -19.1099    1.0000 </r>
       <r>  -19.1088    1.0000 </r>
       <r>  -19.1088    1.0000 </r>
       <r>   -9.8211    1.0000 </r>
       <r>   -9.7523    1.0000 </r>
       <r>   -9.7523    1.0000 </r>
       <r>   -7.0669    1.0000 </r>
       <r>   -0.0712    1.0000 </r>
       <r>    1.5955    1.0000 </r>
       <r>    1.5955    1.0000 </r>
       <r>    3.6005    0.0000 </r>
       <r>    5.9692    0.0000 </r>
       <r>    5.9692    0.0000 </r>
       <r>    6.1927    0.0000 </r>
      </set>
      <set comment="kpoint 6">
       <r>  -25.6067    1.0000 </r>
       <r>  -22.3842    1.0000 </r>
       <r>  -22.3842    1.0000 </r>
       <r>  -22.3829    1.0000 </r>
       <r>  -22.3784    1.0000 </r>
       <r>  -22.3772    1.0000 </r>
       <r>  -22.3772    1.0000 </r>
       <r>  -19.1102    1.0000 </r>
       <r>  -19.1100    1.0000 </r>
       <r>  -19.1100    1.0000 </r>
       <r>  -19.1088    1.0000 </r>
       <r>  -19.1087    1.0000 </r>
       <r>   -9.7615    1.0000 </r>
       <r>   -9.7526    1.0000 </r>
       <r>   -9.7526    1.0000 </r>
       <r>   -7.2426    1.0000 </r>
       <r>    1.1565    1.0000 </r>
       <r>    2.0180    1.0000 </r>
       <r>    2.0180    1.0000 </r>
       <r>    3.0696    0.0000 </r>
       <r>    4.2424    0.0000 </r>
       <r>    4.9467    0.0000 </r>
       <r>    4.9467    0.0000 </r>
      </set>
      <set comment="kpoint 7">
       <r>  -25.6066    1.0000 </r>
       <r>  -22.3840    1.0000 </r>
       <r>  -22.3840    1.0000 </r>
       <r>  -22.3816    1.0000 </r>
       <r>  -22.3795    1.0000 </r>
       <r>  -22.3774    1.0000 </r>
       <r>  -22.3773    1.0000 </r>
       <r>  -19.1103    1.0000 </r>
       <r>  -19.1100    1.0000 </r>
       <r>  -19.1099    1.0000 </r>
       <r>  -19.1088    1.0000 </r>
       <r>  -19.1087    1.0000 </r>
       <r>   -9.7792    1.0000 </r>
       <r>   -9.7542    1.0000 </r>
       <r>   -9.7531    1.0000 </r>
       <r>   -7.1876    1.0000 </r>
       <r>    0.6783    1.0000 </r>
       <r>    1.8021    1.0000 </r>
       <r>    1.8475    1.0000 </r>
       <r>    3.5301    0.0000 </r>
       <r>    4.2727    0.0000 </r>
       <r>    5.3788    0.0000 </r>
       <r>    5.4140    0.0000 </r>
      </set>
      <set comment="kpoint 8">
       <r>  -25.6065    1.0000 </r>
       <r>  -22.3834    1.0000 </r>
       <r>  -22.3833    1.0000 </r>
       <r>  -22.3809    1.0000 </r>
       <r>  -22.3801    1.0000 </r>
       <r>  -22.3780    1.0000 </r>
       <r>  -22.3779    1.0000 </r>
       <r>  -19.1104    1.0000 </r>
       <r>  -19.1099    1.0000 </r>
       <r>  -19.1099    1.0000 </r>
       <r>  -19.1088    1.0000 </r>
       <r>  -19.1087    1.0000 </r>
       <r>   -9.8012    1.0000 </r>
       <r>   -9.7548    1.0000 </r>
       <r>   -9.7544    1.0000 </r>
       <r>   -7.1182    1.0000 </r>
       <r>    0.2593    1.0000 </r>
       <r>    1.5439    1.0000 </r>
       <r>    1.6748    1.0000 </r>
       <r>    3.7430    0.0000 </r>
       <r>    4.8810    0.0000 </r>
       <r>    5.8307    0.0000 </r>
       <r>    5.9054    0.0000 </r>
      </set>
      <set comment="kpoint 9">
       <r>  -25.6064    1.0000 </r>
       <r>  -22.3826    1.0000 </r>
       <r>  -22.3823    1.0000 </r>
       <r>  -22.3818    1.0000 </r>
       <r>  -22.3791    1.0000 </r>
       <r>  -22.3790    1.0000 </r>
       <r>  -22.3788    1.0000 </r>
       <r>  -19.1104    1.0000 </r>
       <r>  -19.1100    1.0000 </r>
       <r>  -19.1099    1.0000 </r>
       <r>  -19.1088    1.0000 </r>
       <r>  -19.1088    1.0000 </r>
       <r>   -9.8142    1.0000 </r>
       <r>   -9.7566    1.0000 </r>
       <r>   -9.7540    1.0000 </r>
       <r>   -7.0747    1.0000 </r>
       <r>    0.0452    1.0000 </r>
       <r>    1.3928    1.0000 </r>
       <r>    1.5838    1.0000 </r>
       <r>    3.8919    0.0000 </r>
       <r>    5.2909    0.0000 </r>
       <r>    6.1090    0.0000 </r>
       <r>    6.1865    0.0000 </r>
      </set>
      <set comment="kpoint 10">
       <r>  -25.6064    1.0000 </r>
       <r>  -22.3835    1.0000 </r>
       <r>  -22.3810    1.0000 </r>
       <r>  -22.3808    1.0000 </r>
       <r>  -22.3804    1.0000 </r>
       <r>  -22.3801    1.0000 </r>
       <r>  -22.3777    1.0000 </r>
       <r>  -19.1104    1.0000 </r>
       <r>  -19.1100    1.0000 </r>
       <r>  -19.1099    1.0000 </r>
       <r>  -19.1088    1.0000 </r>
       <r>  -19.1087    1.0000 </r>
       <r>   -9.8116    1.0000 </r>
       <r>   -9.7581    1.0000 </r>
       <r>   -9.7524    1.0000 </r>
       <r>   -7.0825    1.0000 </r>
       <r>    0.0865    1.0000 </r>
       <r>    1.3916    1.0000 </r>
       <r>    1.6099    1.0000 </r>
       <r>    3.9238    0.0000 </r>
       <r>    5.3904    0.0000 </r>
       <r>    5.6722    0.0000 </r>
       <r>    6.1753    0.0000 </r>
      </set>
      <set comment="kpoint 11">
       <r>  -25.6065    1.0000 </r>
       <r>  -22.3842    1.0000 </r>
       <r>  -22.3818    1.0000 </r>
       <r>  -22.3818    1.0000 </r>
       <r>  -22.3796    1.0000 </r>
       <r>  -22.3793    1.0000 </r>
       <r>  -22.3771    1.0000 </r>
       <r>  -19.1103    1.0000 </r>
       <r>  -19.1100    1.0000 </r>
       <r>  -19.1099    1.0000 </r>
       <r>  -19.1088    1.0000 </r>
       <r>  -19.1087    1.0000 </r>
       <r>   -9.7952    1.0000 </r>
       <r>   -9.7577    1.0000 </r>
       <r>   -9.7508    1.0000 </r>
       <r>   -7.1372    1.0000 </r>
       <r>    0.3711    1.0000 </r>
       <r>    1.5465    1.0000 </r>
       <r>    1.7471    1.0000 </r>
       <r>    3.8001    0.0000 </r>
       <r>    5.0667    0.0000 </r>
       <r>    5.1406    0.0000 </r>
       <r>    5.6806    0.0000 </r>
      </set>
      <set comment="kpoint 12">
       <r>  -25.6066    1.0000 </r>
       <r>  -22.3843    1.0000 </r>
       <r>  -22.3830    1.0000 </r>
       <r>  -22.3830    1.0000 </r>
       <r>  -22.3784    1.0000 </r>
       <r>  -22.3782    1.0000 </r>
       <r>  -22.3771    1.0000 </r>
       <r>  -19.1102    1.0000 </r>
       <r>  -19.1100    1.0000 </r>
       <r>  -19.1100    1.0000 </r>
       <r>  -19.1088    1.0000 </r>
       <r>  -19.1087    1.0000 </r>
       <r>   -9.7744    1.0000 </r>
       <r>   -9.7548    1.0000 </r>
       <r>   -9.7502    1.0000 </r>
       <r>   -7.2068    1.0000 </r>
       <r>    0.8206    1.0000 </r>
       <r>    1.8286    1.0000 </r>
       <r>    1.9388    1.0000 </r>
       <r>    3.4066    0.0000 </r>
       <r>    4.5957    0.0000 </r>
       <r>    4.7787    0.0000 </r>
       <r>    5.2803    0.0000 </r>
      </set>
      <set comment="kpoint 13">
       <r>  -25.6065    1.0000 </r>
       <r>  -22.3845    1.0000 </r>
       <r>  -22.3845    1.0000 </r>
       <r>  -22.3810    1.0000 </r>
       <r>  -22.3799    1.0000 </r>
       <r>  -22.3770    1.0000 </r>
       <r>  -22.3770    1.0000 </r>
       <r>  -19.1105    1.0000 </r>
       <r>  -19.1099    1.0000 </r>
       <r>  -19.1099    1.0000 </r>
       <r>  -19.1089    1.0000 </r>
       <r>  -19.1086    1.0000 </r>
       <r>   -9.7802    1.0000 </r>
       <r>   -9.7572    1.0000 </r>
       <r>   -9.7572    1.0000 </r>
       <r>   -7.1688    1.0000 </r>
       <r>    0.5767    1.0000 </r>
       <r>    1.7582    1.0000 </r>
       <r>    1.7582    1.0000 </r>
       <r>    3.7449    0.0000 </r>
       <r>    3.7532    0.0000 </r>
       <r>    5.9243    0.0000 </r>
       <r>    5.9243    0.0000 </r>
      </set>
      <set comment="kpoint 14">
       <r>  -25.6064    1.0000 </r>
       <r>  -22.3843    1.0000 </r>
       <r>  -22.3843    1.0000 </r>
       <r>  -22.3824    1.0000 </r>
       <r>  -22.3784    1.0000 </r>
       <r>  -22.3771    1.0000 </r>
       <r>  -22.3771    1.0000 </r>
       <r>  -19.1106    1.0000 </r>
       <r>  -19.1098    1.0000 </r>
       <r>  -19.1098    1.0000 </r>
       <r>  -19.1088    1.0000 </r>
       <r>  -19.1086    1.0000 </r>
       <r>   -9.7905    1.0000 </r>
       <r>   -9.7601    1.0000 </r>
       <r>   -9.7589    1.0000 </r>
       <r>   -7.1297    1.0000 </r>
       <r>    0.4062    1.0000 </r>
       <r>    1.4900    1.0000 </r>
       <r>    1.6396    1.0000 </r>
       <r>    3.7273    0.0000 </r>
       <r>    4.1713    0.0000 </r>
       <r>    5.9338    0.0000 </r>
       <r>    6.3198    0.0000 </r>
      </set>
      <set comment="kpoint 15">
       <r>  -25.6064    1.0000 </r>
       <r>  -22.3840    1.0000 </r>
       <r>  -22.3836    1.0000 </r>
       <r>  -22.3831    1.0000 </r>
       <r>  -22.3778    1.0000 </r>
       <r>  -22.3778    1.0000 </r>
       <r>  -22.3772    1.0000 </r>
       <r>  -19.1105    1.0000 </r>
       <r>  -19.1099    1.0000 </r>
       <r>  -19.1098    1.0000 </r>
       <r>  -19.1087    1.0000 </r>
       <r>  -19.1086    1.0000 </r>
       <r>   -9.7984    1.0000 </r>
       <r>   -9.7657    1.0000 </r>
       <r>   -9.7581    1.0000 </r>
       <r>   -7.0932    1.0000 </r>
       <r>    0.3215    1.0000 </r>
       <r>    1.1276    1.0000 </r>
       <r>    1.5570    1.0000 </r>
       <r>    3.9319    0.0000 </r>
       <r>    5.0033    0.0000 </r>
       <r>    5.5395    0.0000 </r>
       <r>    6.4906    0.0000 </r>
      </set>
      <set comment="kpoint 16">
       <r>  -25.6064    1.0000 </r>
       <r>  -22.3846    1.0000 </r>
       <r>  -22.3825    1.0000 </r>
       <r>  -22.3820    1.0000 </r>
       <r>  -22.3790    1.0000 </r>
       <r>  -22.3789    1.0000 </r>
       <r>  -22.3766    1.0000 </r>
       <r>  -19.1103    1.0000 </r>
       <r>  -19.1101    1.0000 </r>
       <r>  -19.1098    1.0000 </r>
       <r>  -19.1087    1.0000 </r>
       <r>  -19.1087    1.0000 </r>
       <r>   -9.8000    1.0000 </r>
       <r>   -9.7703    1.0000 </r>
       <r>   -9.7555    1.0000 </r>
       <r>   -7.0801    1.0000 </r>
       <r>    0.3096    1.0000 </r>
       <r>    0.9611    1.0000 </r>
       <r>    1.5500    1.0000 </r>
       <r>    4.3042    0.0000 </r>
       <r>    5.1990    0.0000 </r>
       <r>    6.0288    0.0000 </r>
       <r>    6.0311    0.0000 </r>
      </set>
      <set comment="kpoint 17">
       <r>  -25.6064    1.0000 </r>
       <r>  -22.3847    1.0000 </r>
       <r>  -22.3811    1.0000 </r>
       <r>  -22.3806    1.0000 </r>
       <r>  -22.3804    1.0000 </r>
       <r>  -22.3803    1.0000 </r>
       <r>  -22.3766    1.0000 </r>
       <r>  -19.1103    1.0000 </r>
       <r>  -19.1101    1.0000 </r>
       <r>  -19.1099    1.0000 </r>
       <r>  -19.1088    1.0000 </r>
       <r>  -19.1087    1.0000 </r>
       <r>   -9.7989    1.0000 </r>
       <r>   -9.7670    1.0000 </r>
       <r>   -9.7524    1.0000 </r>
       <r>   -7.0980    1.0000 </r>
       <r>    0.3031    1.0000 </r>
       <r>    1.1395    1.0000 </r>
       <r>    1.6245    1.0000 </r>
       <r>    4.4556    0.0000 </r>
       <r>    5.2337    0.0000 </r>
       <r>    5.2948    0.0000 </r>
       <r>    5.4863    0.0000 </r>
      </set>
      <set comment="kpoint 18">
       <r>  -25.6064    1.0000 </r>
       <r>  -22.3847    1.0000 </r>
       <r>  -22.3847    1.0000 </r>
       <r>  -22.3836    1.0000 </r>
       <r>  -22.3770    1.0000 </r>
       <r>  -22.3767    1.0000 </r>
       <r>  -22.3767    1.0000 </r>
       <r>  -19.1108    1.0000 </r>
       <r>  -19.1097    1.0000 </r>
       <r>  -19.1097    1.0000 </r>
       <r>  -19.1087    1.0000 </r>
       <r>  -19.1085    1.0000 </r>
       <r>   -9.7893    1.0000 </r>
       <r>   -9.7619    1.0000 </r>
       <r>   -9.7619    1.0000 </r>
       <r>   -7.1268    1.0000 </r>
       <r>    0.4105    1.0000 </r>
       <r>    1.5808    1.0000 </r>
       <r>    1.5808    1.0000 </r>
       <r>    3.3852    0.0000 </r>
       <r>    3.8694    0.0000 </r>
       <r>    6.3409    0.0000 </r>
       <r>    6.7612    0.0000 </r>
      </set>
      <set comment="kpoint 19">
       <r>  -25.6064    1.0000 </r>
       <r>  -22.3848    1.0000 </r>
       <r>  -22.3845    1.0000 </r>
       <r>  -22.3841    1.0000 </r>
       <r>  -22.3769    1.0000 </r>
       <r>  -22.3769    1.0000 </r>
       <r>  -22.3761    1.0000 </r>
       <r>  -19.1108    1.0000 </r>
       <r>  -19.1097    1.0000 </r>
       <r>  -19.1097    1.0000 </r>
       <r>  -19.1087    1.0000 </r>
       <r>  -19.1085    1.0000 </r>
       <r>   -9.7894    1.0000 </r>
       <r>   -9.7678    1.0000 </r>
       <r>   -9.7622    1.0000 </r>
       <r>   -7.1115    1.0000 </r>
       <r>    0.4477    1.0000 </r>
       <r>    1.2660    1.0000 </r>
       <r>    1.5319    1.0000 </r>
       <r>    3.5170    0.0000 </r>
       <r>    4.1062    0.0000 </r>
       <r>    6.3325    0.0000 </r>
       <r>    6.9379    0.0000 </r>
      </set>
      <set comment="kpoint 20">
       <r>  -25.6063    1.0000 </r>
       <r>  -22.3850    1.0000 </r>
       <r>  -22.3837    1.0000 </r>
       <r>  -22.3833    1.0000 </r>
       <r>  -22.3777    1.0000 </r>
       <r>  -22.3777    1.0000 </r>
       <r>  -22.3760    1.0000 </r>
       <r>  -19.1106    1.0000 </r>
       <r>  -19.1099    1.0000 </r>
       <r>  -19.1097    1.0000 </r>
       <r>  -19.1086    1.0000 </r>
       <r>  -19.1086    1.0000 </r>
       <r>   -9.7828    1.0000 </r>
       <r>   -9.7823    1.0000 </r>
       <r>   -9.7595    1.0000 </r>
       <r>   -7.0923    1.0000 </r>
       <r>    0.6124    1.0000 </r>
       <r>    0.7524    1.0000 </r>
       <r>    1.5189    1.0000 </r>
       <r>    3.8590    0.0000 </r>
       <r>    4.9769    0.0000 </r>
       <r>    6.0312    0.0000 </r>
       <r>    6.4002    0.0000 </r>
      </set>
      <set comment="kpoint 21">
       <r>  -25.6064    1.0000 </r>
       <r>  -22.3848    1.0000 </r>
       <r>  -22.3848    1.0000 </r>
       <r>  -22.3847    1.0000 </r>
       <r>  -22.3766    1.0000 </r>
       <r>  -22.3766    1.0000 </r>
       <r>  -22.3757    1.0000 </r>
       <r>  -19.1109    1.0000 </r>
       <r>  -19.1097    1.0000 </r>
       <r>  -19.1097    1.0000 </r>
       <r>  -19.1086    1.0000 </r>
       <r>  -19.1085    1.0000 </r>
       <r>   -9.7904    1.0000 </r>
       <r>   -9.7639    1.0000 </r>
       <r>   -9.7639    1.0000 </r>
       <r>   -7.1190    1.0000 </r>
       <r>    0.4270    1.0000 </r>
       <r>    1.5219    1.0000 </r>
       <r>    1.5219    1.0000 </r>
       <r>    3.2586    0.0000 </r>
       <r>    3.7166    0.0000 </r>
       <r>    6.8459    0.0000 </r>
       <r>    7.0863    0.0000 </r>
      </set>
      <set comment="kpoint 22">
       <r>  -25.6065    1.0000 </r>
       <r>  -22.3845    1.0000 </r>
       <r>  -22.3833    1.0000 </r>
       <r>  -22.3810    1.0000 </r>
       <r>  -22.3800    1.0000 </r>
       <r>  -22.3781    1.0000 </r>
       <r>  -22.3768    1.0000 </r>
       <r>  -19.1104    1.0000 </r>
       <r>  -19.1099    1.0000 </r>
       <r>  -19.1099    1.0000 </r>
       <r>  -19.1089    1.0000 </r>
       <r>  -19.1087    1.0000 </r>
       <r>   -9.7898    1.0000 </r>
       <r>   -9.7601    1.0000 </r>
       <r>   -9.7534    1.0000 </r>
       <r>   -7.1418    1.0000 </r>
       <r>    0.4440    1.0000 </r>
       <r>    1.5160    1.0000 </r>
       <r>    1.7030    1.0000 </r>
       <r>    4.0260    0.0000 </r>
       <r>    4.2380    0.0000 </r>
       <r>    5.6924    0.0000 </r>
       <r>    5.7290    0.0000 </r>
      </set>
      <set comment="kpoint 23">
       <r>  -25.6064    1.0000 </r>
       <r>  -22.3844    1.0000 </r>
       <r>  -22.3824    1.0000 </r>
       <r>  -22.3820    1.0000 </r>
       <r>  -22.3793    1.0000 </r>
       <r>  -22.3786    1.0000 </r>
       <r>  -22.3769    1.0000 </r>
       <r>  -19.1104    1.0000 </r>
       <r>  -19.1100    1.0000 </r>
       <r>  -19.1098    1.0000 </r>
       <r>  -19.1088    1.0000 </r>
       <r>  -19.1087    1.0000 </r>
       <r>   -9.8002    1.0000 </r>
       <r>   -9.7639    1.0000 </r>
       <r>   -9.7553    1.0000 </r>
       <r>   -7.0966    1.0000 </r>
       <r>    0.2790    1.0000 </r>
       <r>    1.2280    1.0000 </r>
       <r>    1.5557    1.0000 </r>
       <r>    4.2418    0.0000 </r>
       <r>    4.9058    0.0000 </r>
       <r>    5.3894    0.0000 </r>
       <r>    6.2246    0.0000 </r>
      </set>
      <set comment="kpoint 24">
       <r>  -25.6064    1.0000 </r>
       <r>  -22.3841    1.0000 </r>
       <r>  -22.3831    1.0000 </r>
       <r>  -22.3808    1.0000 </r>
       <r>  -22.3805    1.0000 </r>
       <r>  -22.3775    1.0000 </r>
       <r>  -22.3775    1.0000 </r>
       <r>  -19.1104    1.0000 </r>
       <r>  -19.1101    1.0000 </r>
       <r>  -19.1098    1.0000 </r>
       <r>  -19.1087    1.0000 </r>
       <r>  -19.1087    1.0000 </r>
       <r>   -9.8046    1.0000 </r>
       <r>   -9.7647    1.0000 </r>
       <r>   -9.7567    1.0000 </r>
       <r>   -7.0780    1.0000 </r>
       <r>    0.2212    1.0000 </r>
       <r>    1.1183    1.0000 </r>
       <r>    1.4981    1.0000 </r>
       <r>    4.3680    0.0000 </r>
       <r>    4.9337    0.0000 </r>
       <r>    5.9064    0.0000 </r>
       <r>    6.1295    0.0000 </r>
      </set>
      <set comment="kpoint 25">
       <r>  -25.6064    1.0000 </r>
       <r>  -22.3849    1.0000 </r>
       <r>  -22.3835    1.0000 </r>
       <r>  -22.3835    1.0000 </r>
       <r>  -22.3779    1.0000 </r>
       <r>  -22.3771    1.0000 </r>
       <r>  -22.3766    1.0000 </r>
       <r>  -19.1106    1.0000 </r>
       <r>  -19.1099    1.0000 </r>
       <r>  -19.1097    1.0000 </r>
[...]
       <r>   -7.1084    1.0000 </r>
       <r>    0.4118    1.0000 </r>
       <r>    1.2999    1.0000 </r>
       <r>    1.4386    1.0000 </r>
       <r>    3.9247    0.0000 </r>
       <r>    4.3435    0.0000 </r>
       <r>    5.7173    0.0000 </r>
       <r>    6.8526    0.0000 </r>
      </set>
      <set comment="kpoint 26">
       <r>  -25.6064    1.0000 </r>
       <r>  -22.3851    1.0000 </r>
       <r>  -22.3839    1.0000 </r>
       <r>  -22.3823    1.0000 </r>
       <r>  -22.3792    1.0000 </r>
       <r>  -22.3767    1.0000 </r>
       <r>  -22.3763    1.0000 </r>
       <r>  -19.1105    1.0000 </r>
       <r>  -19.1100    1.0000 </r>
       <r>  -19.1097    1.0000 </r>
       <r>  -19.1087    1.0000 </r>
       <r>  -19.1086    1.0000 </r>
       <r>   -9.7890    1.0000 </r>
       <r>   -9.7731    1.0000 </r>
       <r>   -9.7627    1.0000 </r>
       <r>   -7.0903    1.0000 </r>
       <r>    0.5216    1.0000 </r>
       <r>    0.9274    1.0000 </r>
       <r>    1.3522    1.0000 </r>
       <r>    4.2494    0.0000 </r>
       <r>    5.0375    0.0000 </r>
       <r>    5.4105    0.0000 </r>
       <r>    6.1543    0.0000 </r>
      </set>
      <set comment="kpoint 27">
       <r>  -25.6064    1.0000 </r>
       <r>  -22.3850    1.0000 </r>
       <r>  -22.3834    1.0000 </r>
       <r>  -22.3808    1.0000 </r>
       <r>  -22.3806    1.0000 </r>
       <r>  -22.3774    1.0000 </r>
       <r>  -22.3763    1.0000 </r>
       <r>  -19.1103    1.0000 </r>
       <r>  -19.1102    1.0000 </r>
       <r>  -19.1097    1.0000 </r>
       <r>  -19.1087    1.0000 </r>
       <r>  -19.1086    1.0000 </r>
       <r>   -9.7921    1.0000 </r>
       <r>   -9.7741    1.0000 </r>
       <r>   -9.7592    1.0000 </r>
       <r>   -7.0852    1.0000 </r>
       <r>    0.4648    1.0000 </r>
       <r>    0.8855    1.0000 </r>
       <r>    1.4146    1.0000 </r>
       <r>    4.6443    0.0000 </r>
       <r>    5.0873    0.0000 </r>
       <r>    5.2356    0.0000 </r>
       <r>    6.0421    0.0000 </r>
      </set>
      <set comment="kpoint 28">
       <r>  -25.6064    1.0000 </r>
       <r>  -22.3853    1.0000 </r>
       <r>  -22.3843    1.0000 </r>
       <r>  -22.3836    1.0000 </r>
       <r>  -22.3778    1.0000 </r>
       <r>  -22.3765    1.0000 </r>
       <r>  -22.3758    1.0000 </r>
       <r>  -19.1107    1.0000 </r>
       <r>  -19.1098    1.0000 </r>
       <r>  -19.1097    1.0000 </r>
       <r>  -19.1086    1.0000 </r>
       <r>  -19.1085    1.0000 </r>
       <r>   -9.7864    1.0000 </r>
       <r>   -9.7679    1.0000 </r>
       <r>   -9.7677    1.0000 </r>
       <r>   -7.1041    1.0000 </r>
       <r>    0.5206    1.0000 </r>
       <r>    1.2265    1.0000 </r>
       <r>    1.2726    1.0000 </r>
       <r>    3.8148    0.0000 </r>
       <r>    4.2508    0.0000 </r>
       <r>    6.3228    0.0000 </r>
       <r>    6.4232    0.0000 </r>
      </set>
      <set comment="kpoint 29">
       <r>  -25.6063    1.0000 </r>
       <r>  -22.3855    1.0000 </r>
       <r>  -22.3841    1.0000 </r>
       <r>  -22.3807    1.0000 </r>
       <r>  -22.3807    1.0000 </r>
       <r>  -22.3763    1.0000 </r>
       <r>  -22.3761    1.0000 </r>
       <r>  -19.1103    1.0000 </r>
       <r>  -19.1103    1.0000 </r>
       <r>  -19.1096    1.0000 </r>
       <r>  -19.1086    1.0000 </r>
       <r>  -19.1086    1.0000 </r>
       <r>   -9.7770    1.0000 </r>
       <r>   -9.7770    1.0000 </r>
       <r>   -9.7720    1.0000 </r>
       <r>   -7.0891    1.0000 </r>
       <r>    0.7996    1.0000 </r>
       <r>    0.7996    1.0000 </r>
       <r>    1.0761    1.0000 </r>
       <r>    4.9988    0.0000 </r>
       <r>    4.9988    0.0000 </r>
       <r>    5.0339    0.0000 </r>
       <r>    5.5821    0.0000 </r>
      </set>
     </set>
    </set>
   </array>
  </eigenvalues>
  <separator name="orbital magnetization" >
   <v name="MAGDIPOLOUT">      0.00000000      0.00000000      0.00000000</v>
  </separator>
  <dos>
   <i name="efermi">      2.18792864 </i>
   <total>
    <array>
     <dimension dim="1">gridpoints</dimension>
     <dimension dim="2">spin</dimension>
     <field>energy</field>
     <field>total</field>
     <field>integrated</field>
     <set>
      <set comment="spin 1">
       <r>   -27.2414     0.0000     0.0000 </r>
       <r>   -27.1215     0.0000     0.0000 </r>
       <r>   -27.0016     0.0000     0.0000 </r>
       <r>   -26.8817     0.0000     0.0000 </r>
       <r>   -26.7619     0.0000     0.0000 </r>
       <r>   -26.6420     0.0000     0.0000 </r>
       <r>   -26.5221     0.0000     0.0000 </r>
       <r>   -26.4022     0.0000     0.0000 </r>
       <r>   -26.2824     0.0000     0.0000 </r>
       <r>   -26.1625     0.0000     0.0000 </r>
       <r>   -26.0426     0.0000     0.0000 </r>
       <r>   -25.9228     0.0000     0.0000 </r>
       <r>   -25.8029     0.0000     0.0000 </r>
       <r>   -25.6830     0.2529     0.0303 </r>
       <r>   -25.5631    14.5898     1.7793 </r>
       <r>   -25.4433     1.8415     2.0000 </r>
       <r>   -25.3234     0.0000     2.0000 </r>
       <r>   -25.2035     0.0000     2.0000 </r>
       <r>   -25.0836     0.0000     2.0000 </r>
       <r>   -24.9638     0.0000     2.0000 </r>
       <r>   -24.8439     0.0000     2.0000 </r>
       <r>   -24.7240     0.0000     2.0000 </r>
       <r>   -24.6041     0.0000     2.0000 </r>
       <r>   -24.4843     0.0000     2.0000 </r>
       <r>   -24.3644     0.0000     2.0000 </r>
       <r>   -24.2445     0.0000     2.0000 </r>
       <r>   -24.1246     0.0000     2.0000 </r>
       <r>   -24.0048     0.0000     2.0000 </r>
       <r>   -23.8849     0.0000     2.0000 </r>
       <r>   -23.7650     0.0000     2.0000 </r>
       <r>   -23.6451     0.0000     2.0000 </r>
       <r>   -23.5253     0.0000     2.0000 </r>
       <r>   -23.4054     0.0000     2.0000 </r>
       <r>   -23.2855     0.0000     2.0000 </r>
       <r>   -23.1656     0.0000     2.0000 </r>
       <r>   -23.0458     0.0000     2.0000 </r>
       <r>   -22.9259     0.0000     2.0000 </r>
       <r>   -22.8060     0.0000     2.0000 </r>
       <r>   -22.6861     0.0000     2.0000 </r>
       <r>   -22.5663     0.0000     2.0000 </r>
       <r>   -22.4464     3.1832     2.3816 </r>
       <r>   -22.3265    90.5445    13.2355 </r>
       <r>   -22.2066     6.3771    14.0000 </r>
       <r>   -22.0868     0.0000    14.0000 </r>
       <r>   -21.9669     0.0000    14.0000 </r>
       <r>   -21.8470     0.0000    14.0000 </r>
       <r>   -21.7272     0.0000    14.0000 </r>
       <r>   -21.6073     0.0000    14.0000 </r>
       <r>   -21.4874     0.0000    14.0000 </r>
       <r>   -21.3675     0.0000    14.0000 </r>
       <r>   -21.2477     0.0000    14.0000 </r>
       <r>   -21.1278     0.0000    14.0000 </r>
       <r>   -21.0079     0.0000    14.0000 </r>
       <r>   -20.8880     0.0000    14.0000 </r>
       <r>   -20.7682     0.0000    14.0000 </r>
       <r>   -20.6483     0.0000    14.0000 </r>
       <r>   -20.5284     0.0000    14.0000 </r>
       <r>   -20.4085     0.0000    14.0000 </r>
       <r>   -20.2887     0.0000    14.0000 </r>
       <r>   -20.1688     0.0000    14.0000 </r>
       <r>   -20.0489     0.0000    14.0000 </r>
       <r>   -19.9290     0.0000    14.0000 </r>
       <r>   -19.8092     0.0000    14.0000 </r>
       <r>   -19.6893     0.0000    14.0000 </r>
       <r>   -19.5694     0.0000    14.0000 </r>
       <r>   -19.4495     0.0000    14.0000 </r>
       <r>   -19.3297     0.0000    14.0000 </r>
       <r>   -19.2098     0.1909    14.0229 </r>
       <r>   -19.0899    59.0685    21.1037 </r>
       <r>   -18.9700    24.1580    23.9996 </r>
       <r>   -18.8502     0.0033    24.0000 </r>
       <r>   -18.7303     0.0000    24.0000 </r>
       <r>   -18.6104     0.0000    24.0000 </r>
       <r>   -18.4905     0.0000    24.0000 </r>
       <r>   -18.3707     0.0000    24.0000 </r>
       <r>   -18.2508     0.0000    24.0000 </r>
       <r>   -18.1309     0.0000    24.0000 </r>
       <r>   -18.0110     0.0000    24.0000 </r>
       <r>   -17.8912     0.0000    24.0000 </r>
       <r>   -17.7713     0.0000    24.0000 </r>
       <r>   -17.6514     0.0000    24.0000 </r>
       <r>   -17.5316     0.0000    24.0000 </r>
       <r>   -17.4117     0.0000    24.0000 </r>
       <r>   -17.2918     0.0000    24.0000 </r>
       <r>   -17.1719     0.0000    24.0000 </r>
       <r>   -17.0521     0.0000    24.0000 </r>
       <r>   -16.9322     0.0000    24.0000 </r>
       <r>   -16.8123     0.0000    24.0000 </r>
       <r>   -16.6924     0.0000    24.0000 </r>
       <r>   -16.5726     0.0000    24.0000 </r>
       <r>   -16.4527     0.0000    24.0000 </r>
       <r>   -16.3328     0.0000    24.0000 </r>
       <r>   -16.2129     0.0000    24.0000 </r>
       <r>   -16.0931     0.0000    24.0000 </r>
       <r>   -15.9732     0.0000    24.0000 </r>
       <r>   -15.8533     0.0000    24.0000 </r>
       <r>   -15.7334     0.0000    24.0000 </r>
       <r>   -15.6136     0.0000    24.0000 </r>
       <r>   -15.4937     0.0000    24.0000 </r>
       <r>   -15.3738     0.0000    24.0000 </r>
       <r>   -15.2539     0.0000    24.0000 </r>
       <r>   -15.1341     0.0000    24.0000 </r>
       <r>   -15.0142     0.0000    24.0000 </r>
       <r>   -14.8943     0.0000    24.0000 </r>
       <r>   -14.7744     0.0000    24.0000 </r>
       <r>   -14.6546     0.0000    24.0000 </r>
       <r>   -14.5347     0.0000    24.0000 </r>
       <r>   -14.4148     0.0000    24.0000 </r>
       <r>   -14.2949     0.0000    24.0000 </r>
       <r>   -14.1751     0.0000    24.0000 </r>
       <r>   -14.0552     0.0000    24.0000 </r>
       <r>   -13.9353     0.0000    24.0000 </r>
       <r>   -13.8154     0.0000    24.0000 </r>
       <r>   -13.6956     0.0000    24.0000 </r>
       <r>   -13.5757     0.0000    24.0000 </r>
       <r>   -13.4558     0.0000    24.0000 </r>
       <r>   -13.3360     0.0000    24.0000 </r>
       <r>   -13.2161     0.0000    24.0000 </r>
       <r>   -13.0962     0.0000    24.0000 </r>
       <r>   -12.9763     0.0000    24.0000 </r>
       <r>   -12.8565     0.0000    24.0000 </r>
       <r>   -12.7366     0.0000    24.0000 </r>
       <r>   -12.6167     0.0000    24.0000 </r>
       <r>   -12.4968     0.0000    24.0000 </r>
       <r>   -12.3770     0.0000    24.0000 </r>
       <r>   -12.2571     0.0000    24.0000 </r>
       <r>   -12.1372     0.0000    24.0000 </r>
       <r>   -12.0173     0.0000    24.0000 </r>
       <r>   -11.8975     0.0000    24.0000 </r>
       <r>   -11.7776     0.0000    24.0000 </r>
       <r>   -11.6577     0.0000    24.0000 </r>
       <r>   -11.5378     0.0000    24.0000 </r>
       <r>   -11.4180     0.0000    24.0000 </r>
       <r>   -11.2981     0.0000    24.0000 </r>
       <r>   -11.1782     0.0000    24.0000 </r>
       <r>   -11.0583     0.0000    24.0000 </r>
       <r>   -10.9385     0.0000    24.0000 </r>
       <r>   -10.8186     0.0000    24.0000 </r>
       <r>   -10.6987     0.0000    24.0000 </r>
       <r>   -10.5788     0.0000    24.0000 </r>
       <r>   -10.4590     0.0000    24.0000 </r>
       <r>   -10.3391     0.0000    24.0000 </r>
       <r>   -10.2192     0.0000    24.0000 </r>
       <r>   -10.0993     0.0000    24.0000 </r>
       <r>    -9.9795     0.0000    24.0000 </r>
       <r>    -9.8596     0.7343    24.0880 </r>
       <r>    -9.7397    38.5721    28.7118 </r>
       <r>    -9.6198    10.7445    29.9998 </r>
       <r>    -9.5000     0.0016    30.0000 </r>
       <r>    -9.3801     0.0000    30.0000 </r>
       <r>    -9.2602     0.0000    30.0000 </r>
       <r>    -9.1403     0.0000    30.0000 </r>
       <r>    -9.0205     0.0000    30.0000 </r>
       <r>    -8.9006     0.0000    30.0000 </r>
       <r>    -8.7807     0.0000    30.0000 </r>
       <r>    -8.6609     0.0000    30.0000 </r>
       <r>    -8.5410     0.0000    30.0000 </r>
       <r>    -8.4211     0.0000    30.0000 </r>
       <r>    -8.3012     0.0000    30.0000 </r>
       <r>    -8.1814     0.0000    30.0000 </r>
       <r>    -8.0615     0.0000    30.0000 </r>
       <r>    -7.9416     0.0000    30.0000 </r>
       <r>    -7.8217     0.0000    30.0000 </r>
       <r>    -7.7019     0.0000    30.0000 </r>
       <r>    -7.5820     0.0000    30.0000 </r>
       <r>    -7.4621     0.0000    30.0000 </r>
       <r>    -7.3422     0.0032    30.0004 </r>
       <r>    -7.2224     0.6882    30.0829 </r>
       <r>    -7.1025     8.3329    31.0818 </r>
       <r>    -6.9826     7.6419    31.9978 </r>
       <r>    -6.8627     0.0179    32.0000 </r>
       <r>    -6.7429     0.0000    32.0000 </r>
       <r>    -6.6230     0.0000    32.0000 </r>
       <r>    -6.5031     0.0000    32.0000 </r>
       <r>    -6.3832     0.0000    32.0000 </r>
       <r>    -6.2634     0.0000    32.0000 </r>
       <r>    -6.1435     0.0000    32.0000 </r>
       <r>    -6.0236     0.0000    32.0000 </r>
       <r>    -5.9037     0.0000    32.0000 </r>
       <r>    -5.7839     0.0000    32.0000 </r>
       <r>    -5.6640     0.0000    32.0000 </r>
       <r>    -5.5441     0.0000    32.0000 </r>
       <r>    -5.4242     0.0000    32.0000 </r>
       <r>    -5.3044     0.0000    32.0000 </r>
       <r>    -5.1845     0.0000    32.0000 </r>
       <r>    -5.0646     0.0000    32.0000 </r>
       <r>    -4.9447     0.0000    32.0000 </r>
       <r>    -4.8249     0.0000    32.0000 </r>
       <r>    -4.7050     0.0000    32.0000 </r>
       <r>    -4.5851     0.0000    32.0000 </r>
       <r>    -4.4653     0.0000    32.0000 </r>
       <r>    -4.3454     0.0000    32.0000 </r>
       <r>    -4.2255     0.0000    32.0000 </r>
       <r>    -4.1056     0.0000    32.0000 </r>
       <r>    -3.9858     0.0000    32.0000 </r>
       <r>    -3.8659     0.0000    32.0000 </r>
       <r>    -3.7460     0.0000    32.0000 </r>
       <r>    -3.6261     0.0000    32.0000 </r>
       <r>    -3.5063     0.0000    32.0000 </r>
       <r>    -3.3864     0.0000    32.0000 </r>
       <r>    -3.2665     0.0000    32.0000 </r>
       <r>    -3.1466     0.0000    32.0000 </r>
       <r>    -3.0268     0.0000    32.0000 </r>
       <r>    -2.9069     0.0000    32.0000 </r>
       <r>    -2.7870     0.0000    32.0000 </r>
       <r>    -2.6671     0.0000    32.0000 </r>
       <r>    -2.5473     0.0000    32.0000 </r>
       <r>    -2.4274     0.0000    32.0000 </r>
       <r>    -2.3075     0.0000    32.0000 </r>
       <r>    -2.1876     0.0000    32.0000 </r>
       <r>    -2.0678     0.0000    32.0000 </r>
       <r>    -1.9479     0.0000    32.0000 </r>
       <r>    -1.8280     0.0000    32.0000 </r>
       <r>    -1.7081     0.0000    32.0000 </r>
       <r>    -1.5883     0.0000    32.0000 </r>
       <r>    -1.4684     0.0000    32.0000 </r>
       <r>    -1.3485     0.0000    32.0000 </r>
       <r>    -1.2286     0.0000    32.0000 </r>
       <r>    -1.1088     0.0000    32.0000 </r>
       <r>    -0.9889     0.0000    32.0000 </r>
       <r>    -0.8690     0.0000    32.0000 </r>
       <r>    -0.7491     0.0000    32.0000 </r>
       <r>    -0.6293     0.0000    32.0000 </r>
       <r>    -0.5094     0.0000    32.0000 </r>
       <r>    -0.3895     0.0000    32.0000 </r>
       <r>    -0.2697     0.0000    32.0000 </r>
       <r>    -0.1498     0.0017    32.0002 </r>
       <r>    -0.0299     0.1265    32.0154 </r>
       <r>     0.0900     1.2608    32.1665 </r>
       <r>     0.2098     0.9653    32.2822 </r>
       <r>     0.3297     4.0343    32.7658 </r>
       <r>     0.4496     4.1808    33.2670 </r>
       <r>     0.5695     3.5621    33.6940 </r>
       <r>     0.6893     1.1913    33.8368 </r>
       <r>     0.8092     1.0524    33.9630 </r>
       <r>     0.9291     2.0585    34.2097 </r>
       <r>     1.0490     1.5463    34.3951 </r>
       <r>     1.1688     2.0729    34.6436 </r>
       <r>     1.2887     3.5113    35.0645 </r>
       <r>     1.4086     3.9086    35.5330 </r>
       <r>     1.5285     5.4645    36.1881 </r>
       <r>     1.6483     7.7912    37.1220 </r>
       <r>     1.7682     3.2167    37.5076 </r>
       <r>     1.8881     2.5566    37.8141 </r>
       <r>     2.0080     0.7265    37.9012 </r>
       <r>     2.1278     0.7499    37.9911 </r>
       <r>     2.2477     0.1053    38.0037 </r>
       <r>     2.3676     0.0016    38.0039 </r>
       <r>     2.4875     0.0000    38.0039 </r>
       <r>     2.6073     0.0000    38.0039 </r>
       <r>     2.7272     0.0000    38.0039 </r>
       <r>     2.8471     0.0071    38.0048 </r>
       <r>     2.9670     0.2354    38.0330 </r>
       <r>     3.0868     0.1524    38.0513 </r>
       <r>     3.2067     0.0682    38.0594 </r>
       <r>     3.3266     0.1351    38.0756 </r>
       <r>     3.4465     0.7675    38.1676 </r>
       <r>     3.5663     1.6510    38.3655 </r>
       <r>     3.6862     0.5116    38.4269 </r>
       <r>     3.8061     2.4613    38.7219 </r>
       <r>     3.9259     2.9600    39.0768 </r>
       <r>     4.0458     1.9379    39.3091 </r>
       <r>     4.1657     1.3406    39.4698 </r>
       <r>     4.2856     5.1310    40.0848 </r>
       <r>     4.4054     2.7936    40.4197 </r>
       <r>     4.5253     0.5402    40.4845 </r>
       <r>     4.6452     1.0147    40.6061 </r>
       <r>     4.7651     1.1259    40.7411 </r>
       <r>     4.8849     1.2127    40.8864 </r>
       <r>     5.0048     3.8299    41.3455 </r>
       <r>     5.1247     4.1733    41.8458 </r>
       <r>     5.2446     2.4907    42.1444 </r>
       <r>     5.3644     3.0642    42.5117 </r>
       <r>     5.4843     4.6410    43.0681 </r>
       <r>     5.6042     1.4506    43.2419 </r>
       <r>     5.7241     3.1216    43.6161 </r>
       <r>     5.8439     1.6269    43.8112 </r>
       <r>     5.9638     2.8423    44.1519 </r>
       <r>     6.0837     3.2031    44.5359 </r>
       <r>     6.2036     4.8000    45.1113 </r>
       <r>     6.3234     2.7403    45.4397 </r>
       <r>     6.4433     1.8511    45.6616 </r>
       <r>     6.5632     0.8518    45.7637 </r>
       <r>     6.6831     0.0183    45.7659 </r>
       <r>     6.8029     0.2432    45.7951 </r>
       <r>     6.9228     1.0711    45.9235 </r>
       <r>     7.0427     0.5499    45.9894 </r>
       <r>     7.1626     0.0868    45.9998 </r>
       <r>     7.2824     0.0015    46.0000 </r>
       <r>     7.4023     0.0000    46.0000 </r>
       <r>     7.5222     0.0000    46.0000 </r>
       <r>     7.6421     0.0000    46.0000 </r>
       <r>     7.7619     0.0000    46.0000 </r>
       <r>     7.8818     0.0000    46.0000 </r>
       <r>     8.0017     0.0000    46.0000 </r>
       <r>     8.1215     0.0000    46.0000 </r>
       <r>     8.2414     0.0000    46.0000 </r>
       <r>     8.3613     0.0000    46.0000 </r>
       <r>     8.4812     0.0000    46.0000 </r>
       <r>     8.6010     0.0000    46.0000 </r>
       <r>     8.7209     0.0000    46.0000 </r>
      </set>
     </set>
    </array>
   </total>
  </dos>
 </calculation>
 <structure name="finalpos" >
  <crystal>
   <varray name="basis" >
    <v>      -0.00000000       4.05536614       4.05536614 </v>
    <v>       4.05536614       0.00000000       4.05536614 </v>
    <v>       4.05536614       4.05536614      -0.00000000 </v>
   </varray>
   <i name="volume">    133.38905881 </i>
   <varray name="rec_basis" >
    <v>      -0.12329343       0.12329343       0.12329343 </v>
    <v>       0.12329343      -0.12329343       0.12329343 </v>
    <v>       0.12329343       0.12329343      -0.12329343 </v>
   </varray>
  </crystal>
  <varray name="positions" >
   <v>       0.25000019       0.25000019       0.25000019 </v>
   <v>       0.00000000       0.00000000       0.00000000 </v>
   <v>       0.50000038       0.50000038       0.50000038 </v>
   <v>       0.74999931       0.74999931       0.74999931 </v>
  </varray>
 </structure>
</modeling>
