unknown system                          
           1
     0.000000    3.998357    3.998357
     3.998357    0.000000    3.998357
     3.998357    3.998357    0.000000
   Bi   Na   Rb
   1   2   1
Direct configuration=     1
   0.25000019  0.25000019  0.25000019
   0.00000000  0.00000000  0.00000000
   0.50000038  0.50000038  0.50000038
   0.74999931  0.74999931  0.74999931
unknown system                          
           1
    -0.000000    4.027249    4.027249
     4.027249    0.000000    4.027249
     4.027249    4.027249   -0.000000
   Bi   Na   Rb
   1   2   1
Direct configuration=     2
   0.25000019  0.25000019  0.25000019
   0.00000000  0.00000000  0.00000000
   0.50000038  0.50000038  0.50000038
   0.74999931  0.74999931  0.74999931
unknown system                          
           1
    -0.000000    4.058114    4.058114
     4.058114    0.000000    4.058114
     4.058114    4.058114   -0.000000
   Bi   Na   Rb
   1   2   1
Direct configuration=     3
   0.25000019  0.25000019  0.25000019
   0.00000000  0.00000000  0.00000000
   0.50000038  0.50000038  0.50000038
   0.74999931  0.74999931  0.74999931
unknown system                          
           1
    -0.000000    4.057284    4.057284
     4.057284    0.000000    4.057284
     4.057284    4.057284   -0.000000
   Bi   Na   Rb
   1   2   1
Direct configuration=     4
   0.25000019  0.25000019  0.25000019
   0.00000000  0.00000000  0.00000000
   0.50000038  0.50000038  0.50000038
   0.74999931  0.74999931  0.74999931
unknown system                          
           1
    -0.000000    4.042267    4.042267
     4.042267    0.000000    4.042267
     4.042267    4.042267   -0.000000
   Bi   Na   Rb
   1   2   1
Direct configuration=     5
   0.25000019  0.25000019  0.25000019
   0.00000000  0.00000000  0.00000000
   0.50000038  0.50000038  0.50000038
   0.74999931  0.74999931  0.74999931
unknown system                          
           1
    -0.000000    4.055892    4.055892
     4.055892    0.000000    4.055892
     4.055892    4.055892   -0.000000
   Bi   Na   Rb
   1   2   1
Direct configuration=     6
   0.25000019  0.25000019  0.25000019
   0.00000000  0.00000000  0.00000000
   0.50000038  0.50000038  0.50000038
   0.74999931  0.74999931  0.74999931
unknown system                          
           1
    -0.000000    4.055188    4.055188
     4.055188    0.000000    4.055188
     4.055188    4.055188   -0.000000
   Bi   Na   Rb
   1   2   1
Direct configuration=     7
   0.25000019  0.25000019  0.25000019
   0.00000000  0.00000000  0.00000000
   0.50000038  0.50000038  0.50000038
   0.74999931  0.74999931  0.74999931
unknown system                          
           1
    -0.000000    4.055544    4.055544
     4.055544    0.000000    4.055544
     4.055544    4.055544   -0.000000
   Bi   Na   Rb
   1   2   1
Direct configuration=     8
   0.25000019  0.25000019  0.25000019
   0.00000000  0.00000000  0.00000000
   0.50000038  0.50000038  0.50000038
   0.74999931  0.74999931  0.74999931
unknown system                          
           1
    -0.000000    4.055366    4.055366
     4.055366    0.000000    4.055366
     4.055366    4.055366   -0.000000
   Bi   Na   Rb
   1   2   1
Direct configuration=     9
   0.25000019  0.25000019  0.25000019
   0.00000000  0.00000000  0.00000000
   0.50000038  0.50000038  0.50000038
   0.74999931  0.74999931  0.74999931
