   4   4   0   0
  0.2845359E+02  0.5439647E-09  0.5439647E-09  0.5439647E-09  0.5000000E-15
  1.000000000000000E-004
  CAR 
 unknown system                          
      9.37784310    -30.80019579  301      2.29646375      1.00000000
    -30.800  0.0000E+00  0.0000E+00
    -30.666  0.0000E+00  0.0000E+00
    -30.532  0.0000E+00  0.0000E+00
    -30.398  0.0000E+00  0.0000E+00
    -30.264  0.0000E+00  0.0000E+00
    -30.131  0.0000E+00  0.0000E+00
    -29.997  0.0000E+00  0.0000E+00
    -29.863  0.0000E+00  0.0000E+00
    -29.729  0.0000E+00  0.0000E+00
    -29.595  0.0000E+00  0.0000E+00
    -29.461  0.0000E+00  0.0000E+00
    -29.327  0.0000E+00  0.0000E+00
    -29.193  0.4054E-10  0.5430E-11
    -29.059  0.1165E-02  0.1560E-03
    -28.925  0.1354E+00  0.1829E-01
    -28.791  0.1275E-01  0.2000E-01
    -28.657  0.1865E-07  0.2000E-01
    -28.523  0.0000E+00  0.2000E-01
    -28.390  0.0000E+00  0.2000E-01
    -28.256  0.0000E+00  0.2000E-01
    -28.122  0.0000E+00  0.2000E-01
    -27.988  0.0000E+00  0.2000E-01
    -27.854  0.0000E+00  0.2000E-01
    -27.720  0.0000E+00  0.2000E-01
    -27.586  0.0000E+00  0.2000E-01
    -27.452  0.0000E+00  0.2000E-01
    -27.318  0.0000E+00  0.2000E-01
    -27.184  0.0000E+00  0.2000E-01
    -27.050  0.0000E+00  0.2000E-01
    -26.916  0.0000E+00  0.2000E-01
    -26.782  0.0000E+00  0.2000E-01
    -26.648  0.0000E+00  0.2000E-01
    -26.515  0.0000E+00  0.2000E-01
    -26.381  0.0000E+00  0.2000E-01
    -26.247  0.0000E+00  0.2000E-01
    -26.113  0.0000E+00  0.2000E-01
    -25.979  0.0000E+00  0.2000E-01
    -25.845  0.0000E+00  0.2000E-01
    -25.711  0.0000E+00  0.2000E-01
    -25.577  0.0000E+00  0.2000E-01
    -25.443  0.0000E+00  0.2000E-01
    -25.309  0.0000E+00  0.2000E-01
    -25.175  0.0000E+00  0.2000E-01
    -25.041  0.0000E+00  0.2000E-01
    -24.907  0.0000E+00  0.2000E-01
    -24.773  0.0000E+00  0.2000E-01
    -24.640  0.0000E+00  0.2000E-01
    -24.506  0.0000E+00  0.2000E-01
    -24.372  0.0000E+00  0.2000E-01
    -24.238  0.0000E+00  0.2000E-01
    -24.104  0.0000E+00  0.2000E-01
    -23.970  0.0000E+00  0.2000E-01
    -23.836  0.0000E+00  0.2000E-01
    -23.702  0.0000E+00  0.2000E-01
    -23.568  0.0000E+00  0.2000E-01
    -23.434  0.0000E+00  0.2000E-01
    -23.300  0.0000E+00  0.2000E-01
    -23.166  0.0000E+00  0.2000E-01
    -23.032  0.0000E+00  0.2000E-01
    -22.899  0.0000E+00  0.2000E-01
    -22.765  0.0000E+00  0.2000E-01
    -22.631  0.0000E+00  0.2000E-01
    -22.497  0.0000E+00  0.2000E-01
    -22.363  0.1255E-07  0.2000E-01
    -22.229  0.3258E-01  0.2436E-01
    -22.095  0.8411E+00  0.1370E+00
    -21.961  0.2229E-01  0.1400E+00
    -21.827  0.4736E-08  0.1400E+00
    -21.693  0.0000E+00  0.1400E+00
    -21.559  0.0000E+00  0.1400E+00
    -21.425  0.0000E+00  0.1400E+00
    -21.291  0.0000E+00  0.1400E+00
    -21.157  0.0000E+00  0.1400E+00
    -21.024  0.0000E+00  0.1400E+00
    -20.890  0.0000E+00  0.1400E+00
    -20.756  0.0000E+00  0.1400E+00
    -20.622  0.0000E+00  0.1400E+00
    -20.488  0.0000E+00  0.1400E+00
    -20.354  0.0000E+00  0.1400E+00
    -20.220  0.0000E+00  0.1400E+00
    -20.086  0.0000E+00  0.1400E+00
    -19.952  0.0000E+00  0.1400E+00
    -19.818  0.0000E+00  0.1400E+00
    -19.684  0.0000E+00  0.1400E+00
    -19.550  0.0000E+00  0.1400E+00
    -19.416  0.0000E+00  0.1400E+00
    -19.282  0.0000E+00  0.1400E+00
    -19.149  0.0000E+00  0.1400E+00
    -19.015  0.0000E+00  0.1400E+00
    -18.881  0.0000E+00  0.1400E+00
    -18.747  0.0000E+00  0.1400E+00
    -18.613  0.0000E+00  0.1400E+00
    -18.479  0.0000E+00  0.1400E+00
    -18.345  0.0000E+00  0.1400E+00
    -18.211  0.0000E+00  0.1400E+00
    -18.077  0.0000E+00  0.1400E+00
    -17.943  0.0000E+00  0.1400E+00
    -17.809  0.0000E+00  0.1400E+00
    -17.675  0.0000E+00  0.1400E+00
    -17.541  0.0000E+00  0.1400E+00
    -17.408  0.0000E+00  0.1400E+00
    -17.274  0.0000E+00  0.1400E+00
    -17.140  0.0000E+00  0.1400E+00
    -17.006  0.0000E+00  0.1400E+00
    -16.872  0.0000E+00  0.1400E+00
    -16.738  0.0000E+00  0.1400E+00
    -16.604  0.0000E+00  0.1400E+00
    -16.470  0.0000E+00  0.1400E+00
    -16.336  0.0000E+00  0.1400E+00
    -16.202  0.0000E+00  0.1400E+00
    -16.068  0.0000E+00  0.1400E+00
    -15.934  0.0000E+00  0.1400E+00
    -15.800  0.0000E+00  0.1400E+00
    -15.666  0.0000E+00  0.1400E+00
    -15.533  0.0000E+00  0.1400E+00
    -15.399  0.0000E+00  0.1400E+00
    -15.265  0.0000E+00  0.1400E+00
    -15.131  0.0000E+00  0.1400E+00
    -14.997  0.0000E+00  0.1400E+00
    -14.863  0.0000E+00  0.1400E+00
    -14.729  0.0000E+00  0.1400E+00
    -14.595  0.0000E+00  0.1400E+00
    -14.461  0.0000E+00  0.1400E+00
    -14.327  0.0000E+00  0.1400E+00
    -14.193  0.0000E+00  0.1400E+00
    -14.059  0.0000E+00  0.1400E+00
    -13.925  0.0000E+00  0.1400E+00
    -13.791  0.0000E+00  0.1400E+00
    -13.658  0.0000E+00  0.1400E+00
    -13.524  0.0000E+00  0.1400E+00
    -13.390  0.0000E+00  0.1400E+00
    -13.256  0.0000E+00  0.1400E+00
    -13.122  0.0000E+00  0.1400E+00
    -12.988  0.0000E+00  0.1400E+00
    -12.854  0.0000E+00  0.1400E+00
    -12.720  0.1606E-09  0.1400E+00
    -12.586  0.3414E-02  0.1405E+00
    -12.452  0.4021E+00  0.1943E+00
    -12.318  0.4250E-01  0.2000E+00
    -12.184  0.9291E-07  0.2000E+00
    -12.050  0.0000E+00  0.2000E+00
    -11.917  0.0000E+00  0.2000E+00
    -11.783  0.0000E+00  0.2000E+00
    -11.649  0.0000E+00  0.2000E+00
    -11.515  0.0000E+00  0.2000E+00
    -11.381  0.0000E+00  0.2000E+00
    -11.247  0.0000E+00  0.2000E+00
    -11.113  0.0000E+00  0.2000E+00
    -10.979  0.0000E+00  0.2000E+00
    -10.845  0.0000E+00  0.2000E+00
    -10.711  0.0000E+00  0.2000E+00
    -10.577  0.0000E+00  0.2000E+00
    -10.443  0.0000E+00  0.2000E+00
    -10.309  0.0000E+00  0.2000E+00
    -10.175  0.0000E+00  0.2000E+00
    -10.042  0.0000E+00  0.2000E+00
     -9.908  0.0000E+00  0.2000E+00
     -9.774  0.0000E+00  0.2000E+00
     -9.640  0.0000E+00  0.2000E+00
     -9.506  0.0000E+00  0.2000E+00
     -9.372  0.0000E+00  0.2000E+00
     -9.238  0.0000E+00  0.2000E+00
     -9.104  0.0000E+00  0.2000E+00
     -8.970  0.0000E+00  0.2000E+00
     -8.836  0.0000E+00  0.2000E+00
     -8.702  0.0000E+00  0.2000E+00
     -8.568  0.0000E+00  0.2000E+00
     -8.434  0.0000E+00  0.2000E+00
     -8.300  0.0000E+00  0.2000E+00
     -8.167  0.0000E+00  0.2000E+00
     -8.033  0.0000E+00  0.2000E+00
     -7.899  0.0000E+00  0.2000E+00
     -7.765  0.0000E+00  0.2000E+00
     -7.631  0.0000E+00  0.2000E+00
     -7.497  0.0000E+00  0.2000E+00
     -7.363  0.0000E+00  0.2000E+00
     -7.229  0.0000E+00  0.2000E+00
     -7.095  0.0000E+00  0.2000E+00
     -6.961  0.0000E+00  0.2000E+00
     -6.827  0.0000E+00  0.2000E+00
     -6.693  0.0000E+00  0.2000E+00
     -6.559  0.0000E+00  0.2000E+00
     -6.426  0.0000E+00  0.2000E+00
     -6.292  0.0000E+00  0.2000E+00
     -6.158  0.0000E+00  0.2000E+00
     -6.024  0.7694E-10  0.2000E+00
     -5.890  0.5021E-04  0.2000E+00
     -5.756  0.5266E-02  0.2007E+00
     -5.622  0.2176E-01  0.2036E+00
     -5.488  0.8368E-01  0.2148E+00
     -5.354  0.3857E-01  0.2200E+00
     -5.220  0.1037E-04  0.2200E+00
     -5.086  0.9756E-14  0.2200E+00
     -4.952  0.0000E+00  0.2200E+00
     -4.818  0.0000E+00  0.2200E+00
     -4.684  0.0000E+00  0.2200E+00
     -4.551  0.0000E+00  0.2200E+00
     -4.417  0.0000E+00  0.2200E+00
     -4.283  0.0000E+00  0.2200E+00
     -4.149  0.0000E+00  0.2200E+00
     -4.015  0.0000E+00  0.2200E+00
     -3.881  0.0000E+00  0.2200E+00
     -3.747  0.0000E+00  0.2200E+00
     -3.613  0.0000E+00  0.2200E+00
     -3.479  0.0000E+00  0.2200E+00
     -3.345  0.0000E+00  0.2200E+00
     -3.211  0.0000E+00  0.2200E+00
     -3.077  0.0000E+00  0.2200E+00
     -2.943  0.0000E+00  0.2200E+00
     -2.809  0.0000E+00  0.2200E+00
     -2.676  0.0000E+00  0.2200E+00
     -2.542  0.0000E+00  0.2200E+00
     -2.408  0.0000E+00  0.2200E+00
     -2.274  0.0000E+00  0.2200E+00
     -2.140  0.0000E+00  0.2200E+00
     -2.006  0.0000E+00  0.2200E+00
     -1.872  0.0000E+00  0.2200E+00
     -1.738  0.0000E+00  0.2200E+00
     -1.604  0.0000E+00  0.2200E+00
     -1.470  0.0000E+00  0.2200E+00
     -1.336  0.0000E+00  0.2200E+00
     -1.202  0.0000E+00  0.2200E+00
     -1.068  0.0000E+00  0.2200E+00
     -0.935  0.0000E+00  0.2200E+00
     -0.801  0.0000E+00  0.2200E+00
     -0.667  0.0000E+00  0.2200E+00
     -0.533  0.0000E+00  0.2200E+00
     -0.399  0.3667E-10  0.2200E+00
     -0.265  0.6108E-04  0.2200E+00
     -0.131  0.2140E-02  0.2203E+00
      0.003  0.1360E-01  0.2221E+00
      0.137  0.1572E-01  0.2242E+00
      0.271  0.4902E-01  0.2308E+00
      0.405  0.4236E-01  0.2365E+00
      0.539  0.6979E-02  0.2374E+00
      0.673  0.1211E-01  0.2390E+00
      0.807  0.2794E-01  0.2428E+00
      0.940  0.9229E-02  0.2440E+00
      1.074  0.2473E-01  0.2473E+00
      1.208  0.3012E-01  0.2513E+00
      1.342  0.3619E-01  0.2562E+00
      1.476  0.6277E-01  0.2646E+00
      1.610  0.5283E-01  0.2717E+00
      1.744  0.3420E-01  0.2762E+00
      1.878  0.1659E-01  0.2785E+00
      2.012  0.9225E-02  0.2797E+00
      2.146  0.2169E-02  0.2800E+00
      2.280  0.3033E-04  0.2800E+00
      2.414  0.9125E-11  0.2800E+00
      2.548  0.1177E-10  0.2800E+00
      2.682  0.1673E-04  0.2800E+00
      2.815  0.2710E-03  0.2800E+00
      2.949  0.3947E-05  0.2800E+00
      3.083  0.2903E-12  0.2800E+00
      3.217  0.1955E-08  0.2800E+00
      3.351  0.3696E-03  0.2801E+00
      3.485  0.1982E-02  0.2804E+00
      3.619  0.2424E-02  0.2807E+00
      3.753  0.3352E-02  0.2811E+00
      3.887  0.1219E-01  0.2828E+00
      4.021  0.1037E-01  0.2841E+00
      4.155  0.2417E-01  0.2874E+00
      4.289  0.4193E-01  0.2930E+00
      4.423  0.6936E-02  0.2939E+00
      4.556  0.4336E-01  0.2997E+00
      4.690  0.2819E-01  0.3035E+00
      4.824  0.1242E-01  0.3052E+00
      4.958  0.9485E-02  0.3064E+00
      5.092  0.1682E-01  0.3087E+00
      5.226  0.2515E-01  0.3121E+00
      5.360  0.3071E-01  0.3162E+00
      5.494  0.5649E-01  0.3237E+00
      5.628  0.2163E-01  0.3266E+00
      5.762  0.3116E-01  0.3308E+00
      5.896  0.3751E-01  0.3358E+00
      6.030  0.2309E-01  0.3389E+00
      6.164  0.1901E-01  0.3415E+00
      6.298  0.9472E-02  0.3427E+00
      6.431  0.3564E-01  0.3475E+00
      6.565  0.3306E-01  0.3519E+00
      6.699  0.2338E-01  0.3551E+00
      6.833  0.1153E-01  0.3566E+00
      6.967  0.8204E-02  0.3577E+00
      7.101  0.1203E-01  0.3593E+00
      7.235  0.3252E-02  0.3598E+00
      7.369  0.8223E-03  0.3599E+00
      7.503  0.9213E-04  0.3599E+00
      7.637  0.7944E-03  0.3600E+00
      7.771  0.6969E-05  0.3600E+00
      7.905  0.2493E-12  0.3600E+00
      8.039  0.0000E+00  0.3600E+00
      8.173  0.0000E+00  0.3600E+00
      8.306  0.0000E+00  0.3600E+00
      8.440  0.0000E+00  0.3600E+00
      8.574  0.0000E+00  0.3600E+00
      8.708  0.0000E+00  0.3600E+00
      8.842  0.0000E+00  0.3600E+00
      8.976  0.0000E+00  0.3600E+00
      9.110  0.0000E+00  0.3600E+00
      9.244  0.0000E+00  0.3600E+00
      9.378  0.0000E+00  0.3600E+00
