    4    4  100    1
  0.2845359E+02  0.5439647E-09  0.5439647E-09  0.5439647E-09  0.5000000E-15
  1.000000000000000E-004
  CAR 
 unknown system                          
     28     29     18
 
  0.0000000E+00  0.0000000E+00  0.0000000E+00  0.1953125E-02
    1      -28.973921   1.000000
    2      -22.169663   1.000000
    3      -22.169658   1.000000
    4      -22.169654   1.000000
    5      -22.159810   1.000000
    6      -22.159805   1.000000
    7      -22.159801   1.000000
    8      -12.491777   1.000000
    9      -12.491774   1.000000
   10      -12.491770   1.000000
   11       -5.846360   1.000000
   12        2.081554   1.000000
   13        2.081565   1.000000
   14        2.081577   1.000000
   15        2.737276   0.000000
   16        4.861891   0.000000
   17        4.861895   0.000000
   18        4.861900   0.000000
 
  0.1250000E+00  0.0000000E+00  0.0000000E+00  0.1562500E-01
    1      -28.973879   1.000000
    2      -22.169376   1.000000
    3      -22.169302   1.000000
    4      -22.169296   1.000000
    5      -22.160197   1.000000
    6      -22.160191   1.000000
    7      -22.160133   1.000000
    8      -12.494898   1.000000
    9      -12.491938   1.000000
   10      -12.491933   1.000000
   11       -5.801627   1.000000
   12        1.368746   1.000000
   13        1.991584   1.000000
   14        1.991600   1.000000
   15        3.386530   0.000000
   16        4.966115   0.000000
   17        5.021399   0.000000
   18        5.021407   0.000000
 
  0.2500000E+00  0.0000000E+00  0.0000000E+00  0.1562500E-01
    1      -28.973786   1.000000
    2      -22.168531   1.000000
    3      -22.168274   1.000000
    4      -22.168268   1.000000
    5      -22.161298   1.000000
    6      -22.161292   1.000000
    7      -22.161193   1.000000
    8      -12.502418   1.000000
    9      -12.492341   1.000000
   10      -12.492335   1.000000
   11       -5.688790   1.000000
   12        0.556044   1.000000
   13        1.803855   1.000000
   14        1.803872   1.000000
   15        3.792691   0.000000
   16        5.380880   0.000000
   17        5.380894   0.000000
   18        5.641826   0.000000
 
  0.3750000E+00  0.0000000E+00  0.0000000E+00  0.1562500E-01
    1      -28.973694   1.000000
    2      -22.167053   1.000000
    3      -22.166718   1.000000
    4      -22.166712   1.000000
    5      -22.162941   1.000000
    6      -22.162935   1.000000
    7      -22.162885   1.000000
    8      -12.509811   1.000000
    9      -12.492757   1.000000
   10      -12.492752   1.000000
   11       -5.567903   1.000000
   12       -0.005482   1.000000
   13        1.644958   1.000000
   14        1.644975   1.000000
   15        3.873295   0.000000
   16        5.728407   0.000000
   17        5.728427   0.000000
   18        6.617369   0.000000
 
  0.5000000E+00  0.0000000E+00  0.0000000E+00  0.7812500E-02
    1      -28.973655   1.000000
    2      -22.165486   1.000000
    3      -22.164867   1.000000
    4      -22.164861   1.000000
    5      -22.164819   1.000000
    6      -22.164813   1.000000
    7      -22.164542   1.000000
    8      -12.512845   1.000000
    9      -12.492917   1.000000
   10      -12.492912   1.000000
   11       -5.515036   1.000000
   12       -0.207524   1.000000
   13        1.585287   1.000000
   14        1.585304   1.000000
   15        3.896971   0.000000
   16        5.878791   0.000000
   17        5.878813   0.000000
   18        6.623938   0.000000
 
  0.0000000E+00  0.1250000E+00  0.0000000E+00  0.1171875E-01
    1      -28.973866   1.000000
    2      -22.169936   1.000000
    3      -22.169933   1.000000
    4      -22.167840   1.000000
    5      -22.161625   1.000000
    6      -22.159595   1.000000
    7      -22.159592   1.000000
    8      -12.494807   1.000000
    9      -12.492526   1.000000
   10      -12.492526   1.000000
   11       -5.788081   1.000000
   12        1.297929   1.000000
   13        1.922772   1.000000
   14        1.922772   1.000000
   15        3.571828   0.000000
   16        4.576037   0.000000
   17        5.265664   0.000000
   18        5.265667   0.000000
 
  0.1250000E+00  0.1250000E+00  0.0000000E+00  0.4687500E-01
    1      -28.973791   1.000000
    2      -22.169855   1.000000
    3      -22.169818   1.000000
    4      -22.165974   1.000000
    5      -22.163577   1.000000
    6      -22.159807   1.000000
    7      -22.159804   1.000000
    8      -12.500237   1.000000
    9      -12.493231   1.000000
   10      -12.492939   1.000000
   11       -5.701379   1.000000
   12        0.721191   1.000000
   13        1.731324   1.000000
   14        1.759591   1.000000
   15        4.017253   0.000000
   16        4.621619   0.000000
   17        5.673410   0.000000
   18        5.688812   0.000000
 
  0.2500000E+00  0.1250000E+00  0.0000000E+00  0.4687500E-01
    1      -28.973698   1.000000
    2      -22.169011   1.000000
    3      -22.168927   1.000000
    4      -22.165745   1.000000
    5      -22.163920   1.000000
    6      -22.160847   1.000000
    7      -22.160785   1.000000
    8      -12.507098   1.000000
    9      -12.493735   1.000000
   10      -12.493647   1.000000
   11       -5.586415   1.000000
   12        0.186535   1.000000
   13        1.492575   1.000000
   14        1.611545   1.000000
   15        4.131692   0.000000
   16        5.246213   0.000000
   17        5.876873   0.000000
   18        5.966156   0.000000
 
  0.3750000E+00  0.1250000E+00  0.0000000E+00  0.4687500E-01
    1      -28.973642   1.000000
    2      -22.168070   1.000000
    3      -22.167390   1.000000
    4      -22.167156   1.000000
    5      -22.162558   1.000000
    6      -22.162351   1.000000
    7      -22.161952   1.000000
    8      -12.511169   1.000000
    9      -12.494683   1.000000
   10      -12.493525   1.000000
   11       -5.511461   1.000000
   12       -0.093843   1.000000
   13        1.336549   1.000000
   14        1.547367   1.000000
   15        4.225441   0.000000
   16        5.414365   0.000000
   17        6.064745   0.000000
   18        6.458405   0.000000
 
  0.5000000E+00  0.1250000E+00  0.0000000E+00  0.4687500E-01
    1      -28.973655   1.000000
    2      -22.169456   1.000000
    3      -22.165432   1.000000
    4      -22.165338   1.000000
    5      -22.164551   1.000000
    6      -22.164267   1.000000
    7      -22.160373   1.000000
    8      -12.510218   1.000000
    9      -12.495163   1.000000
   10      -12.492939   1.000000
   11       -5.527313   1.000000
   12       -0.035056   1.000000
   13        1.318095   1.000000
   14        1.592010   1.000000
   15        4.276123   0.000000
   16        5.449254   0.000000
   17        5.874058   0.000000
   18        6.564036   0.000000
 
 -0.3750000E+00  0.1250000E+00  0.0000000E+00  0.4687500E-01
    1      -28.973728   1.000000
    2      -22.170256   1.000000
    3      -22.166613   1.000000
    4      -22.166247   1.000000
    5      -22.163357   1.000000
    6      -22.163170   1.000000
    7      -22.159461   1.000000
    8      -12.504924   1.000000
    9      -12.494764   1.000000
   10      -12.492222   1.000000
   11       -5.622772   1.000000
   12        0.339907   1.000000
   13        1.453561   1.000000
   14        1.731513   1.000000
   15        4.229883   0.000000
   16        5.389535   0.000000
   17        5.471760   0.000000
   18        5.785600   0.000000
 
 -0.2500000E+00  0.1250000E+00  0.0000000E+00  0.2343750E-01
    1      -28.973822   1.000000
    2      -22.170190   1.000000
    3      -22.168234   1.000000
    4      -22.168004   1.000000
    5      -22.161507   1.000000
    6      -22.161379   1.000000
    7      -22.159398   1.000000
    8      -12.498564   1.000000
    9      -12.493433   1.000000
   10      -12.491806   1.000000
   11       -5.735456   1.000000
   12        0.895776   1.000000
   13        1.730825   1.000000
   14        1.902795   1.000000
   15        3.894139   0.000000
   16        4.919949   0.000000
   17        5.116733   0.000000
   18        5.558491   0.000000
 
  0.0000000E+00  0.2500000E+00  0.0000000E+00  0.1171875E-01
    1      -28.973741   1.000000
    2      -22.170625   1.000000
    3      -22.170622   1.000000
    4      -22.166089   1.000000
    5      -22.163492   1.000000
    6      -22.159114   1.000000
    7      -22.159110   1.000000
    8      -12.501514   1.000000
    9      -12.494377   1.000000
   10      -12.494377   1.000000
   11       -5.653872   1.000000
   12        0.576120   1.000000
   13        1.637700   1.000000
   14        1.637701   1.000000
   15        4.072154   0.000000
   16        4.224473   0.000000
   17        6.250752   0.000000
   18        6.252923   0.000000
 
  0.1250000E+00  0.2500000E+00  0.0000000E+00  0.4687500E-01
    1      -28.973666   1.000000
    2      -22.170565   1.000000
    3      -22.170543   1.000000
    4      -22.168395   1.000000
    5      -22.161243   1.000000
    6      -22.159316   1.000000
    7      -22.159281   1.000000
    8      -12.505514   1.000000
    9      -12.495715   1.000000
   10      -12.495092   1.000000
   11       -5.571629   1.000000
   12        0.311342   1.000000
   13        1.370149   1.000000
   14        1.519103   1.000000
   15        4.045273   0.000000
   16        4.501267   0.000000
   17        6.043501   0.000000
   18        6.511108   0.000000
 
  0.2500000E+00  0.2500000E+00  0.0000000E+00  0.4687500E-01
    1      -28.973609   1.000000
    2      -22.170483   1.000000
    3      -22.169583   1.000000
    4      -22.169282   1.000000
    5      -22.160456   1.000000
    6      -22.160271   1.000000
    7      -22.159504   1.000000
    8      -12.507944   1.000000
    9      -12.498107   1.000000
   10      -12.494972   1.000000
   11       -5.501904   1.000000
   12        0.161610   1.000000
   13        0.997932   1.000000
   14        1.462375   1.000000
   15        4.188867   0.000000
   16        5.273495   0.000000
   17        5.770684   0.000000
   18        6.553918   0.000000
 
  0.3750000E+00  0.2500000E+00  0.0000000E+00  0.4687500E-01
    1      -28.973604   1.000000
    2      -22.171376   1.000000
    3      -22.167863   1.000000
    4      -22.167604   1.000000
    5      -22.162315   1.000000
    6      -22.161940   1.000000
    7      -22.158525   1.000000
    8      -12.507481   1.000000
    9      -12.500139   1.000000
   10      -12.494089   1.000000
   11       -5.488229   1.000000
   12        0.163987   1.000000
   13        0.804771   1.000000
   14        1.492125   1.000000
   15        4.505928   0.000000
   16        5.503940   0.000000
   17        6.287583   0.000000
   18        6.353929   0.000000
 
  0.5000000E+00  0.2500000E+00  0.0000000E+00  0.2343750E-01
    1      -28.973654   1.000000
    2      -22.171328   1.000000
    3      -22.165681   1.000000
    4      -22.165411   1.000000
    5      -22.164488   1.000000
    6      -22.164030   1.000000
    7      -22.158507   1.000000
    8      -12.506270   1.000000
    9      -12.498738   1.000000
   10      -12.492954   1.000000
   11       -5.539459   1.000000
   12        0.221141   1.000000
   13        0.986049   1.000000
   14        1.598764   1.000000
   15        4.818894   0.000000
   16        5.443078   0.000000
   17        5.569801   0.000000
   18        5.869092   0.000000
 
  0.0000000E+00  0.3750000E+00  0.0000000E+00  0.1171875E-01
    1      -28.973616   1.000000
    2      -22.171305   1.000000
    3      -22.171302   1.000000
    4      -22.170533   1.000000
    5      -22.159147   1.000000
    6      -22.158632   1.000000
    7      -22.158629   1.000000
    8      -12.507247   1.000000
    9      -12.496239   1.000000
   10      -12.496239   1.000000
   11       -5.531968   1.000000
   12        0.235594   1.000000
   13        1.428155   1.000000
   14        1.428156   1.000000
   15        3.696344   0.000000
   16        4.034700   0.000000
   17        6.766384   0.000000
   18        7.003425   0.000000
 
  0.1250000E+00  0.3750000E+00  0.0000000E+00  0.4687500E-01
    1      -28.973577   1.000000
    2      -22.171945   1.000000
    3      -22.171058   1.000000
    4      -22.170915   1.000000
    5      -22.158972   1.000000
    6      -22.158904   1.000000
    7      -22.157905   1.000000
    8      -12.508116   1.000000
    9      -12.498160   1.000000
   10      -12.496420   1.000000
   11       -5.491034   1.000000
   12        0.217412   1.000000
   13        1.116588   1.000000
   14        1.385151   1.000000
   15        3.788648   0.000000
   16        4.213791   0.000000
   17        6.856281   0.000000
   18        7.095226   0.000000
 
  0.2500000E+00  0.3750000E+00  0.0000000E+00  0.2343750E-01
    1      -28.973573   1.000000
    2      -22.172235   1.000000
    3      -22.169849   1.000000
    4      -22.169608   1.000000
    5      -22.160305   1.000000
    6      -22.160067   1.000000
    7      -22.157669   1.000000
    8      -12.505853   1.000000
    9      -12.502124   1.000000
   10      -12.495538   1.000000
   11       -5.473090   1.000000
   12        0.382020   1.000000
   13        0.611146   1.000000
   14        1.409494   1.000000
   15        4.056832   0.000000
   16        5.106274   0.000000
   17        6.623070   0.000000
   18        6.790670   0.000000
 
  0.0000000E+00  0.5000000E+00  0.0000000E+00  0.5859375E-02
    1      -28.973567   1.000000
    2      -22.172360   1.000000
    3      -22.171577   1.000000
    4      -22.171573   1.000000
    5      -22.158420   1.000000
    6      -22.158417   1.000000
    7      -22.157334   1.000000
    8      -12.509328   1.000000
    9      -12.497006   1.000000
   10      -12.497006   1.000000
   11       -5.486133   1.000000
   12        0.162845   1.000000
   13        1.355083   1.000000
   14        1.355084   1.000000
   15        3.562493   0.000000
   16        3.791935   0.000000
   17        7.297115   0.000000
   18        7.551569   0.000000
 
  0.1250000E+00  0.1250000E+00  0.1250000E+00  0.4687500E-01
    1      -28.973714   1.000000
    2      -22.170828   1.000000
    3      -22.168758   1.000000
    4      -22.165922   1.000000
    5      -22.163710   1.000000
    6      -22.160995   1.000000
    7      -22.158934   1.000000
    8      -12.503847   1.000000
    9      -12.495647   1.000000
   10      -12.493176   1.000000
   11       -5.616755   1.000000
   12        0.414125   1.000000
   13        1.393350   1.000000
   14        1.646178   1.000000
   15        4.506913   0.000000
   16        4.564765   0.000000
   17        5.693515   0.000000
   18        6.075569   0.000000
 
  0.2500000E+00  0.1250000E+00  0.1250000E+00  0.9375000E-01
    1      -28.973641   1.000000
    2      -22.170913   1.000000
    3      -22.168113   1.000000
    4      -22.167051   1.000000
    5      -22.162814   1.000000
    6      -22.161600   1.000000
    7      -22.158981   1.000000
    8      -12.507435   1.000000
    9      -12.497494   1.000000
   10      -12.493933   1.000000
   11       -5.528368   1.000000
   12        0.164468   1.000000
   13        1.099728   1.000000
   14        1.497421   1.000000
   15        4.606557   0.000000
   16        5.250701   0.000000
   17        5.450233   0.000000
   18        6.425193   0.000000
 
  0.3750000E+00  0.1250000E+00  0.1250000E+00  0.4687500E-01
    1      -28.973610   1.000000
    2      -22.170379   1.000000
    3      -22.169437   1.000000
    4      -22.165049   1.000000
    5      -22.164865   1.000000
    6      -22.159938   1.000000
    7      -22.159927   1.000000
    8      -12.508954   1.000000
    9      -12.498046   1.000000
   10      -12.494405   1.000000
   11       -5.490522   1.000000
   12        0.066551   1.000000
   13        0.994795   1.000000
   14        1.434914   1.000000
   15        4.724669   0.000000
   16        5.037377   0.000000
   17        6.329932   0.000000
   18        6.355643   0.000000
 
  0.1250000E+00  0.2500000E+00  0.1250000E+00  0.4687500E-01
    1      -28.973608   1.000000
    2      -22.171575   1.000000
    3      -22.170270   1.000000
    4      -22.169402   1.000000
    5      -22.160546   1.000000
    6      -22.159323   1.000000
    7      -22.158462   1.000000
    8      -12.506899   1.000000
    9      -12.497874   1.000000
   10      -12.495888   1.000000
   11       -5.513171   1.000000
   12        0.248104   1.000000
   13        1.146064   1.000000
   14        1.328059   1.000000
   15        4.238034   0.000000
   16        4.506654   0.000000
   17        5.998116   0.000000
   18        7.031706   0.000000
 
  0.2500000E+00  0.2500000E+00  0.1250000E+00  0.9375000E-01
    1      -28.973578   1.000000
    2      -22.172024   1.000000
    3      -22.170856   1.000000
    4      -22.167502   1.000000
    5      -22.162496   1.000000
    6      -22.158633   1.000000
    7      -22.158206   1.000000
    8      -12.506039   1.000000
    9      -12.500902   1.000000
   10      -12.496249   1.000000
   11       -5.475886   1.000000
   12        0.331039   1.000000
   13        0.760970   1.000000
   14        1.245449   1.000000
   15        4.478664   0.000000
   16        5.158116   0.000000
   17        5.805403   0.000000
   18        6.587848   0.000000
 
  0.3750000E+00  0.2500000E+00  0.1250000E+00  0.4687500E-01
    1      -28.973590   1.000000
    2      -22.171952   1.000000
    3      -22.169930   1.000000
    4      -22.165167   1.000000
    5      -22.164800   1.000000
    6      -22.159752   1.000000
    7      -22.158068   1.000000
    8      -12.505383   1.000000
    9      -12.501856   1.000000
   10      -12.495212   1.000000
   11       -5.482313   1.000000
   12        0.321855   1.000000
   13        0.695793   1.000000
   14        1.332328   1.000000
   15        4.815469   0.000000
   16        5.442502   0.000000
   17        5.497749   0.000000
   18        6.423017   0.000000
 
  0.1250000E+00  0.3750000E+00  0.1250000E+00  0.2343750E-01
    1      -28.973566   1.000000
    2      -22.172515   1.000000
    3      -22.171432   1.000000
    4      -22.169675   1.000000
    5      -22.160362   1.000000
    6      -22.158264   1.000000
    7      -22.157506   1.000000
    8      -12.507516   1.000000
    9      -12.498807   1.000000
   10      -12.497413   1.000000
   11       -5.475734   1.000000
   12        0.273570   1.000000
   13        1.059307   1.000000
   14        1.153345   1.000000
   15        4.121234   0.000000
   16        4.295312   0.000000
   17        6.775795   0.000000
   18        6.836309   0.000000
 
  0.2500000E+00  0.2500000E+00  0.2500000E+00  0.1171875E-01
    1      -28.973563   1.000000
    2      -22.172627   1.000000
    3      -22.171307   1.000000
    4      -22.165015   1.000000
    5      -22.165015   1.000000
    6      -22.157900   1.000000
    7      -22.157866   1.000000
    8      -12.503135   1.000000
    9      -12.503135   1.000000
   10      -12.497777   1.000000
   11       -5.465238   1.000000
   12        0.594739   1.000000
   13        0.594739   1.000000
   14        0.987635   1.000000
   15        5.005852   0.000000
   16        5.352942   0.000000
   17        5.352944   0.000000
   18        6.022717   0.000000
