 vasp.5.4.4.18Apr17-6-g9f103f2a35 (build Jun 23 2019 17:35:09) complex          
  
 executed on             LinuxIFC date 2020.01.14  23:27:11
 running on   28 total cores
 distrk:  each k-point on    7 cores,    4 groups
 distr:  one band on NCORES_PER_BAND=   7 cores,    1 groups


--------------------------------------------------------------------------------------------------------


 INCAR:
 POTCAR:    PAW_PBE K_sv 06Sep2000                
 POTCAR:    PAW_PBE Na_pv 19Sep2006               
 POTCAR:    PAW_PBE Sb 06Sep2000                  

 ----------------------------------------------------------------------------- 
|                                                                             |
|           W    W    AA    RRRRR   N    N  II  N    N   GGGG   !!!           |
|           W    W   A  A   R    R  NN   N  II  NN   N  G    G  !!!           |
|           W    W  A    A  R    R  N N  N  II  N N  N  G       !!!           |
|           W WW W  AAAAAA  RRRRR   N  N N  II  N  N N  G  GGG   !            |
|           WW  WW  A    A  R   R   N   NN  II  N   NN  G    G                |
|           W    W  A    A  R    R  N    N  II  N    N   GGGG   !!!           |
|                                                                             |
|      You have enabled k-point parallelism (KPAR>1).                         |
|      This developmental code was originally  written by Paul Kent at ORNL,  |
|      and carefully double checked in Vienna.                                |
|      GW as well as linear response parallelism added by Martijn Marsman     |
|      and Georg Kresse.                                                      |
|      Carefully verify results versus KPAR=1.                                |
|      Report problems to Paul Kent and Vienna.                               |
|                                                                             |
 ----------------------------------------------------------------------------- 

 POTCAR:    PAW_PBE K_sv 06Sep2000                
   VRHFIN =K:  3s3p4s                                                           
   LEXCH  = PE                                                                  
   EATOM  =   775.0067 eV,   56.9614 Ry                                         
                                                                                
   TITEL  = PAW_PBE K_sv 06Sep2000                                              
   LULTRA =        F    use ultrasoft PP ?                                      
   IUNSCR =        1    unscreen: 0-lin 1-nonlin 2-no                           
   RPACOR =    2.200    partial core radius                                     
   POMASS =   39.098; ZVAL   =    9.000    mass and valenz                      
   RCORE  =    2.300    outmost cutoff radius                                   
   RWIGS  =    3.000; RWIGS  =    1.588    wigner-seitz radius (au A)           
   ENMAX  =  259.264; ENMIN  =  194.448 eV                                      
   RCLOC  =    2.005    cutoff for local pot                                    
   LCOR   =        T    correct aug charges                                     
   LPAW   =        T    paw PP                                                  
   EAUG   =  427.853                                                            
   DEXC   =    0.000                                                            
   RMAX   =    2.358    core radius for proj-oper                               
   RAUG   =    1.300    factor for augmentation sphere                          
   RDEP   =    2.372    radius for radial grids                                 
   RDEPT  =    2.002    core radius for aug-charge                              
                                                                                
   Atomic configuration                                                         
    7 entries                                                                   
     n  l   j            E        occ.                                          
     1  0  0.50     -3522.0595   2.0000                                         
     2  0  0.50      -353.3851   2.0000                                         
     2  1  1.50      -280.0935   6.0000                                         
     3  0  0.50       -35.3419   2.0000                                         
     4  0  0.50        -2.3190   1.0000                                         
     3  1  1.50       -18.8125   6.0000                                         
     3  2  1.50        -1.3606   0.0000                                         
   Description                                                                  
     l       E           TYP  RCUT    TYP  RCUT                                 
     0    -35.3418873     23  2.300                                             
     0     -2.3190215     23  2.300                                             
     1    -18.8124623     23  2.300                                             
     1    -20.4087390     23  2.300                                             
     2     -1.3605826     23  2.300                                             
  local pseudopotential read in
  partial core-charges read in
  partial kinetic energy density read in
  atomic valenz-charges read in
  non local Contribution for L=           0  read in
    real space projection operators read in
  non local Contribution for L=           0  read in
    real space projection operators read in
  non local Contribution for L=           1  read in
    real space projection operators read in
  non local Contribution for L=           1  read in
    real space projection operators read in
  non local Contribution for L=           2  read in
    real space projection operators read in
    PAW grid and wavefunctions read in
 
   number of l-projection  operators is LMAX  =           5
   number of lm-projection operators is LMMAX =          13
 
 POTCAR:    PAW_PBE Na_pv 19Sep2006               
   VRHFIN =Na: p6s1                                                             
   LEXCH  = PE                                                                  
   EATOM  =   766.0439 eV,   56.3026 Ry                                         
                                                                                
   TITEL  = PAW_PBE Na_pv 19Sep2006                                             
   LULTRA =        F    use ultrasoft PP ?                                      
   IUNSCR =        1    unscreen: 0-lin 1-nonlin 2-no                           
   RPACOR =    1.800    partial core radius                                     
   POMASS =   22.990; ZVAL   =    7.000    mass and valenz                      
   RCORE  =    2.200    outmost cutoff radius                                   
   RWIGS  =    2.200; RWIGS  =    1.164    wigner-seitz radius (au A)           
   ENMAX  =  259.561; ENMIN  =  194.671 eV                                      
   ICORE  =        2    local potential                                         
   LCOR   =        T    correct aug charges                                     
   LPAW   =        T    paw PP                                                  
   EAUG   =  368.056                                                            
   DEXC   =    0.000                                                            
   RMAX   =    2.245    core radius for proj-oper                               
   RAUG   =    1.300    factor for augmentation sphere                          
   RDEP   =    2.259    radius for radial grids                                 
   RDEPT  =    1.738    core radius for aug-charge                              
                                                                                
   Atomic configuration                                                         
    5 entries                                                                   
     n  l   j            E        occ.                                          
     1  0  0.50     -1033.6933   2.0000                                         
     2  0  0.50       -56.7526   2.0000                                         
     2  1  1.50       -28.6721   6.0000                                         
     3  0  0.50        -2.7440   1.0000                                         
     3  2  1.50        -1.3606   0.0000                                         
   Description                                                                  
     l       E           TYP  RCUT    TYP  RCUT                                 
     1    -28.6720912     23  2.000                                             
     1      6.8029130     23  2.000                                             
     0     -2.7439560     23  2.200                                             
     0     34.0145650     23  2.200                                             
     2     -1.3605826     23  2.200                                             
  local pseudopotential read in
  partial core-charges read in
  partial kinetic energy density read in
  atomic valenz-charges read in
  non local Contribution for L=           1  read in
    real space projection operators read in
  non local Contribution for L=           1  read in
    real space projection operators read in
  non local Contribution for L=           0  read in
    real space projection operators read in
  non local Contribution for L=           0  read in
    real space projection operators read in
    PAW grid and wavefunctions read in
 
   number of l-projection  operators is LMAX  =           4
   number of lm-projection operators is LMMAX =           8
 
 POTCAR:    PAW_PBE Sb 06Sep2000                  
   VRHFIN =Sb: s2p3                                                             
   LEXCH  = PE                                                                  
   EATOM  =   149.9515 eV,   11.0211 Ry                                         
                                                                                
   TITEL  = PAW_PBE Sb 06Sep2000                                                
   LULTRA =        F    use ultrasoft PP ?                                      
   IUNSCR =        1    unscreen: 0-lin 1-nonlin 2-no                           
   RPACOR =    2.200    partial core radius                                     
   POMASS =  121.750; ZVAL   =    5.000    mass and valenz                      
   RCORE  =    2.300    outmost cutoff radius                                   
   RWIGS  =    2.980; RWIGS  =    1.577    wigner-seitz radius (au A)           
   ENMAX  =  172.069; ENMIN  =  129.052 eV                                      
   ICORE  =        3    local potential                                         
   LCOR   =        T    correct aug charges                                     
   LPAW   =        T    paw PP                                                  
   EAUG   =  380.513                                                            
   DEXC   =    0.000                                                            
   RMAX   =    2.346    core radius for proj-oper                               
   RAUG   =    1.300    factor for augmentation sphere                          
   RDEP   =    2.360    radius for radial grids                                 
   RDEPT  =    2.192    core radius for aug-charge                              
                                                                                
   Atomic configuration                                                         
   13 entries                                                                   
     n  l   j            E        occ.                                          
     1  0  0.50    -30298.2797   2.0000                                         
     2  0  0.50     -4610.2252   2.0000                                         
     2  1  1.50     -4138.3407   6.0000                                         
     3  0  0.50      -903.8815   2.0000                                         
     3  1  1.50      -750.1337   6.0000                                         
     3  2  2.50      -515.7092  10.0000                                         
     4  0  0.50      -148.8034   2.0000                                         
     4  1  1.50      -101.7581   6.0000                                         
     4  2  2.50       -33.5048  10.0000                                         
     5  0  0.50       -12.8298   2.0000                                         
     5  1  0.50        -4.8276   3.0000                                         
     5  2  1.50        -4.0817   0.0000                                         
     4  3  2.50        -4.0817   0.0000                                         
   Description                                                                  
     l       E           TYP  RCUT    TYP  RCUT                                 
     0    -12.8297861     23  2.300                                             
     0     13.6058260     23  2.300                                             
     1     -4.8275512     23  2.300                                             
     1     -0.7245443     23  2.300                                             
     2     -4.0817478     23  2.300                                             
     3     -1.3605826     23  2.300                                             
  local pseudopotential read in
  partial core-charges read in
  partial kinetic energy density read in
  atomic valenz-charges read in
  non local Contribution for L=           0  read in
    real space projection operators read in
  non local Contribution for L=           0  read in
    real space projection operators read in
  non local Contribution for L=           1  read in
    real space projection operators read in
  non local Contribution for L=           1  read in
    real space projection operators read in
  non local Contribution for L=           2  read in
    real space projection operators read in
    PAW grid and wavefunctions read in
 
   number of l-projection  operators is LMAX  =           5
   number of lm-projection operators is LMMAX =          13
 
  PAW_PBE K_sv 06Sep2000                :
 energy of atom  1       EATOM= -775.0067
 kinetic energy error for atom=    0.0014 (will be added to EATOM!!)
  PAW_PBE Na_pv 19Sep2006               :
 energy of atom  2       EATOM= -766.0439
 kinetic energy error for atom=    0.0019 (will be added to EATOM!!)
  PAW_PBE Sb 06Sep2000                  :
 energy of atom  3       EATOM= -149.9515
 kinetic energy error for atom=    0.0005 (will be added to EATOM!!)
 
 
 POSCAR: Na K Sb                                 
  positions in direct lattice
  No initial velocities read in
 exchange correlation table for  LEXCH =        8
   RHO(1)=    0.500       N(1)  =     2000
   RHO(2)=  100.500       N(2)  =     4000
 


--------------------------------------------------------------------------------------------------------


 ion  position               nearest neighbor table
   1  0.500  0.000  0.500-
   2  0.750  0.500  0.250-
   3  0.250  0.500  0.750-
   4  0.000  0.000  0.000-
 
  LATTYP: Found a face centered cubic cell.
 ALAT       =     7.6928220000
  
  Lattice vectors:
  
 A1 = (  -3.8464110000,   0.0000000000,  -3.8464110000)
 A2 = (   0.0000000000,  -3.8464110000,  -3.8464110000)
 A3 = (  -3.8464110000,  -3.8464110000,   0.0000000000)


Analysis of symmetry for initial positions (statically):
=====================================================================
 Subroutine PRICEL returns:
 Original cell was already a primitive cell.
 

 Routine SETGRP: Setting up the symmetry group for a 
 face centered cubic supercell.


 Subroutine GETGRP returns: Found 48 space group operations
 (whereof 48 operations were pure point group operations)
 out of a pool of 48 trial point group operations.


The static configuration has the point symmetry O_h .


Analysis of symmetry for dynamics (positions and initial velocities):
=====================================================================
 Subroutine PRICEL returns:
 Original cell was already a primitive cell.
 

 Routine SETGRP: Setting up the symmetry group for a 
 face centered cubic supercell.


 Subroutine GETGRP returns: Found 48 space group operations
 (whereof 48 operations were pure point group operations)
 out of a pool of 48 trial point group operations.


The dynamic configuration has the point symmetry O_h .


 Subroutine INISYM returns: Found 48 space group operations
 (whereof 48 operations are pure point group operations),
 and found     1 'primitive' translations

 
 
 KPOINTS: KPOINTS                                 

Automatic generation of k-mesh.
Space group operators:
 irot       det(A)        alpha          n_x          n_y          n_z        tau_x        tau_y        tau_z
    1     1.000000     0.000000     1.000000     0.000000     0.000000     0.000000     0.000000     0.000000
    2    -1.000000     0.000000     1.000000     0.000000     0.000000     0.000000     0.000000     0.000000
    3     1.000000   120.000000     0.577350     0.577350     0.577350     0.000000     0.000000     0.000000
    4    -1.000000   120.000000     0.577350     0.577350     0.577350     0.000000     0.000000     0.000000
    5     1.000000   120.000000    -0.577350    -0.577350    -0.577350     0.000000     0.000000     0.000000
    6    -1.000000   120.000000    -0.577350    -0.577350    -0.577350     0.000000     0.000000     0.000000
    7     1.000000    90.000000     0.000000     0.000000     1.000000     0.000000     0.000000     0.000000
    8    -1.000000    90.000000     0.000000     0.000000     1.000000     0.000000     0.000000     0.000000
    9     1.000000   180.000000     0.707107     0.000000     0.707107     0.000000     0.000000     0.000000
   10    -1.000000   180.000000     0.707107     0.000000     0.707107     0.000000     0.000000     0.000000
   11     1.000000    90.000000    -1.000000     0.000000     0.000000     0.000000     0.000000     0.000000
   12    -1.000000    90.000000    -1.000000     0.000000     0.000000     0.000000     0.000000     0.000000
   13     1.000000   180.000000     0.000000     0.000000     1.000000     0.000000     0.000000     0.000000
   14    -1.000000   180.000000     0.000000     0.000000     1.000000     0.000000     0.000000     0.000000
   15     1.000000   120.000000    -0.577350     0.577350    -0.577350     0.000000     0.000000     0.000000
   16    -1.000000   120.000000    -0.577350     0.577350    -0.577350     0.000000     0.000000     0.000000
   17     1.000000   120.000000    -0.577350     0.577350     0.577350     0.000000     0.000000     0.000000
   18    -1.000000   120.000000    -0.577350     0.577350     0.577350     0.000000     0.000000     0.000000
   19     1.000000    90.000000     0.000000     0.000000    -1.000000     0.000000     0.000000     0.000000
   20    -1.000000    90.000000     0.000000     0.000000    -1.000000     0.000000     0.000000     0.000000
   21     1.000000    90.000000     0.000000     1.000000     0.000000     0.000000     0.000000     0.000000
   22    -1.000000    90.000000     0.000000     1.000000     0.000000     0.000000     0.000000     0.000000
   23     1.000000   180.000000     0.000000     0.707107     0.707107     0.000000     0.000000     0.000000
   24    -1.000000   180.000000     0.000000     0.707107     0.707107     0.000000     0.000000     0.000000
   25     1.000000   120.000000     0.577350    -0.577350    -0.577350     0.000000     0.000000     0.000000
   26    -1.000000   120.000000     0.577350    -0.577350    -0.577350     0.000000     0.000000     0.000000
   27     1.000000   120.000000     0.577350     0.577350    -0.577350     0.000000     0.000000     0.000000
   28    -1.000000   120.000000     0.577350     0.577350    -0.577350     0.000000     0.000000     0.000000
   29     1.000000   180.000000     0.000000     1.000000     0.000000     0.000000     0.000000     0.000000
   30    -1.000000   180.000000     0.000000     1.000000     0.000000     0.000000     0.000000     0.000000
   31     1.000000    90.000000     1.000000     0.000000     0.000000     0.000000     0.000000     0.000000
   32    -1.000000    90.000000     1.000000     0.000000     0.000000     0.000000     0.000000     0.000000
   33     1.000000   180.000000     0.707107     0.707107     0.000000     0.000000     0.000000     0.000000
   34    -1.000000   180.000000     0.707107     0.707107     0.000000     0.000000     0.000000     0.000000
   35     1.000000    90.000000     0.000000    -1.000000     0.000000     0.000000     0.000000     0.000000
   36    -1.000000    90.000000     0.000000    -1.000000     0.000000     0.000000     0.000000     0.000000
   37     1.000000   120.000000     0.577350    -0.577350     0.577350     0.000000     0.000000     0.000000
   38    -1.000000   120.000000     0.577350    -0.577350     0.577350     0.000000     0.000000     0.000000
   39     1.000000   180.000000     1.000000     0.000000     0.000000     0.000000     0.000000     0.000000
   40    -1.000000   180.000000     1.000000     0.000000     0.000000     0.000000     0.000000     0.000000
   41     1.000000   120.000000    -0.577350    -0.577350     0.577350     0.000000     0.000000     0.000000
   42    -1.000000   120.000000    -0.577350    -0.577350     0.577350     0.000000     0.000000     0.000000
   43     1.000000   180.000000     0.707107     0.000000    -0.707107     0.000000     0.000000     0.000000
   44    -1.000000   180.000000     0.707107     0.000000    -0.707107     0.000000     0.000000     0.000000
   45     1.000000   180.000000     0.707107    -0.707107     0.000000     0.000000     0.000000     0.000000
   46    -1.000000   180.000000     0.707107    -0.707107     0.000000     0.000000     0.000000     0.000000
   47     1.000000   180.000000     0.000000    -0.707107     0.707107     0.000000     0.000000     0.000000
   48    -1.000000   180.000000     0.000000    -0.707107     0.707107     0.000000     0.000000     0.000000
 
 Subroutine IBZKPT returns following result:
 ===========================================
 
 Found     29 irreducible k-points:
 
 Following reciprocal coordinates:
            Coordinates               Weight
  0.000000  0.000000  0.000000      1.000000
  0.125000  0.000000  0.000000      8.000000
  0.250000  0.000000  0.000000      8.000000
  0.375000  0.000000  0.000000      8.000000
  0.500000  0.000000  0.000000      4.000000
  0.000000  0.125000  0.000000      6.000000
  0.125000  0.125000  0.000000     24.000000
  0.250000  0.125000  0.000000     24.000000
  0.375000  0.125000  0.000000     24.000000
  0.500000  0.125000  0.000000     24.000000
 -0.375000  0.125000  0.000000     24.000000
 -0.250000  0.125000  0.000000     12.000000
  0.000000  0.250000  0.000000      6.000000
  0.125000  0.250000  0.000000     24.000000
  0.250000  0.250000  0.000000     24.000000
  0.375000  0.250000  0.000000     24.000000
  0.500000  0.250000  0.000000     12.000000
  0.000000  0.375000  0.000000      6.000000
  0.125000  0.375000  0.000000     24.000000
  0.250000  0.375000  0.000000     12.000000
  0.000000  0.500000  0.000000      3.000000
  0.125000  0.125000  0.125000     24.000000
  0.250000  0.125000  0.125000     48.000000
  0.375000  0.125000  0.125000     24.000000
  0.125000  0.250000  0.125000     24.000000
  0.250000  0.250000  0.125000     48.000000
  0.375000  0.250000  0.125000     24.000000
  0.125000  0.375000  0.125000     12.000000
  0.250000  0.250000  0.250000      6.000000
 
 Following cartesian coordinates:
            Coordinates               Weight
  0.000000  0.000000  0.000000      1.000000
  0.016249 -0.016249 -0.016249      8.000000
  0.032498 -0.032498 -0.032498      8.000000
  0.048747 -0.048747 -0.048747      8.000000
  0.064996 -0.064996 -0.064996      4.000000
  0.000000  0.000000 -0.032498      6.000000
  0.016249 -0.016249 -0.048747     24.000000
  0.032498 -0.032498 -0.064996     24.000000
  0.048747 -0.048747 -0.081245     24.000000
  0.064996 -0.064996 -0.097493     24.000000
 -0.048747  0.048747  0.016249     24.000000
 -0.032498  0.032498  0.000000     12.000000
  0.000000  0.000000 -0.064996      6.000000
  0.016249 -0.016249 -0.081245     24.000000
  0.032498 -0.032498 -0.097493     24.000000
  0.048747 -0.048747 -0.113742     24.000000
  0.064996 -0.064996 -0.129991     12.000000
  0.000000  0.000000 -0.097493      6.000000
  0.016249 -0.016249 -0.113742     24.000000
  0.032498 -0.032498 -0.129991     12.000000
  0.000000  0.000000 -0.129991      3.000000
  0.032498  0.000000 -0.064996     24.000000
  0.048747 -0.016249 -0.081245     48.000000
  0.064996 -0.032498 -0.097493     24.000000
  0.032498  0.000000 -0.097493     24.000000
  0.048747 -0.016249 -0.113742     48.000000
  0.064996 -0.032498 -0.129991     24.000000
  0.032498  0.000000 -0.129991     12.000000
  0.064996  0.000000 -0.129991      6.000000
 


--------------------------------------------------------------------------------------------------------




 Dimension of arrays:
   k-points           NKPTS =     29   k-points in BZ     NKDIM =     29   number of bands    NBANDS=     18
   number of dos      NEDOS =    301   number of ions     NIONS =      4
   non local maximal  LDIM  =      5   non local SUM 2l+1 LMDIM =     13
   total plane-waves  NPLWV =  64000
   max r-space proj   IRMAX =      1   max aug-charges    IRDMAX=  31403
   dimension x,y,z NGX =    40 NGY =   40 NGZ =   40
   dimension x,y,z NGXF=    80 NGYF=   80 NGZF=   80
   support grid    NGXF=    80 NGYF=   80 NGZF=   80
   ions per type =               1   2   1
   NGX,Y,Z   is equivalent  to a cutoff of  12.22, 12.22, 12.22 a.u.
   NGXF,Y,Z  is equivalent  to a cutoff of  24.45, 24.45, 24.45 a.u.

 SYSTEM =  unknown system                          
 POSCAR =  Na K Sb                                 

 Startparameter for this run:
   NWRITE =      2    write-flag & timer
   PREC   = acc       normal or accurate (medium, high low for compatibility)
   ISTART =      0    job   : 0-new  1-cont  2-samecut
   ICHARG =      2    charge: 1-file 2-atom 10-const
   ISPIN  =      1    spin polarized calculation?
   LNONCOLLINEAR =      F non collinear calculations
   LSORBIT =      F    spin-orbit coupling
   INIWAV =      1    electr: 0-lowe 1-rand  2-diag
   LASPH  =      F    aspherical Exc in radial PAW
   METAGGA=      F    non-selfconsistent MetaGGA calc.

 Electronic Relaxation 1
   ENCUT  =  520.0 eV  38.22 Ry    6.18 a.u.  10.11 10.11 10.11*2*pi/ulx,y,z
   ENINI  =  520.0     initial cutoff
   ENAUG  =  427.9 eV  augmentation charge cutoff
   NELM   =     60;   NELMIN=  5; NELMDL= -5     # of ELM steps 
   EDIFF  = 0.1E-04   stopping-criterion for ELM
   LREAL  =      F    real-space projection
   NLSPLINE    = F    spline interpolate recip. space projectors
   LCOMPAT=      F    compatible to vasp.4.4
   GGA_COMPAT  = T    GGA compatible to vasp.4.4-vasp.4.6
   LMAXPAW     = -100 max onsite density
   LMAXMIX     =    2 max onsite mixed and CHGCAR
   VOSKOWN=      0    Vosko Wilk Nusair interpolation
   ROPT   =    0.00000   0.00000   0.00000
 Ionic relaxation
   EDIFFG = -.1E-02   stopping-criterion for IOM
   NSW    =    100    number of steps for IOM
   NBLOCK =      1;   KBLOCK =    100    inner block; outer block 
   IBRION =      2    ionic relax: 0-MD 1-quasi-New 2-CG
   NFREE  =      1    steps in history (QN), initial steepest desc. (CG)
   ISIF   =      3    stress and relaxation
   IWAVPR =     11    prediction:  0-non 1-charg 2-wave 3-comb
   ISYM   =      2    0-nonsym 1-usesym 2-fastsym
   LCORR  =      T    Harris-Foulkes like correction to forces

   POTIM  = 0.5000    time-step for ionic-motion
   TEIN   =    0.0    initial temperature
   TEBEG  =    0.0;   TEEND  =   0.0 temperature during run
   SMASS  =  -3.00    Nose mass-parameter (am)
   estimated Nose-frequenzy (Omega)   =  0.10E-29 period in steps =****** mass=  -0.676E-27a.u.
   SCALEE = 1.0000    scale energy and forces
   NPACO  =    256;   APACO  = 16.0  distance and # of slots for P.C.
   PSTRESS=    0.0 pullay stress

  Mass of Ions in am
   POMASS =  39.10 22.99121.75
  Ionic Valenz
   ZVAL   =   9.00  7.00  5.00
  Atomic Wigner-Seitz radii
   RWIGS  =  -1.00 -1.00 -1.00
  virtual crystal weights 
   VCA    =   1.00  1.00  1.00
   NELECT =      28.0000    total number of electrons
   NUPDOWN=      -1.0000    fix difference up-down

 DOS related values:
   EMIN   =  10.00;   EMAX   =-10.00  energy-range for DOS
   EFERMI =   0.00
   ISMEAR =     0;   SIGMA  =   0.05  broadening in eV -4-tet -1-fermi 0-gaus

 Electronic relaxation 2 (details)
   IALGO  =     38    algorithm
   LDIAG  =      T    sub-space diagonalisation (order eigenvalues)
   LSUBROT=      F    optimize rotation matrix (better conditioning)
   TURBO    =      0    0=normal 1=particle mesh
   IRESTART =      0    0=no restart 2=restart with 2 vectors
   NREBOOT  =      0    no. of reboots
   NMIN     =      0    reboot dimension
   EREF     =   0.00    reference energy to select bands
   IMIX   =      4    mixing-type and parameters
     AMIX     =   0.40;   BMIX     =  1.00
     AMIX_MAG =   1.60;   BMIX_MAG =  1.00
     AMIN     =   0.10
     WC   =   100.;   INIMIX=   1;  MIXPRE=   1;  MAXMIX= -45

 Intra band minimization:
   WEIMIN = 0.0010     energy-eigenvalue tresh-hold
   EBREAK =  0.14E-06  absolut break condition
   DEPER  =   0.30     relativ break condition  

   TIME   =   0.40     timestep for ELM

  volume/ion in A,a.u.               =      28.45       192.01
  Fermi-wavevector in a.u.,A,eV,Ry     =   1.025798  1.938477 14.316886  1.052261
  Thomas-Fermi vector in A             =   2.159657
 
 Write flags
   LWAVE        =      F    write WAVECAR
   LDOWNSAMPLE  =      F    k-point downsampling of WAVECAR
   LCHARG       =      F    write CHGCAR
   LVTOT        =      F    write LOCPOT, total local potential
   LVHAR        =      F    write LOCPOT, Hartree potential only
   LELF         =      F    write electronic localiz. function (ELF)
   LORBIT       =      0    0 simple, 1 ext, 2 COOP (PROOUT), +10 PAW based schemes


 Dipole corrections
   LMONO  =      F    monopole corrections only (constant potential shift)
   LDIPOL =      F    correct potential (dipole corrections)
   IDIPOL =      0    1-x, 2-y, 3-z, 4-all directions 
   EPSILON=  1.0000000 bulk dielectric constant

 Exchange correlation treatment:
   GGA     =    PE    GGA type
   LEXCH   =     8    internal setting for exchange type
   VOSKOWN=      0    Vosko Wilk Nusair interpolation
   LHFCALC =     F    Hartree Fock is set to
   LHFONE  =     F    Hartree Fock one center treatment
   AEXX    =    0.0000 exact exchange contribution

 Linear response parameters
   LEPSILON=     F    determine dielectric tensor
   LRPA    =     F    only Hartree local field effects (RPA)
   LNABLA  =     F    use nabla operator in PAW spheres
   LVEL    =     F    velocity operator in full k-point grid
   LINTERFAST=   F  fast interpolation
   KINTER  =     0    interpolate to denser k-point grid
   CSHIFT  =0.1000    complex shift for real part using Kramers Kronig
   OMEGAMAX=  -1.0    maximum frequency
   DEG_THRESHOLD= 0.2000000E-02 threshold for treating states as degnerate
   RTIME   =   -0.100 relaxation time in fs
  (WPLASMAI=    0.000 imaginary part of plasma frequency in eV, 0.658/RTIME)
   DFIELD  = 0.0000000 0.0000000 0.0000000 field for delta impulse in time
 
 Orbital magnetization related:
   ORBITALMAG=     F  switch on orbital magnetization
   LCHIMAG   =     F  perturbation theory with respect to B field
   DQ        =  0.001000  dq finite difference perturbation B field
   LLRAUG    =     F  two centre corrections for induced B field



--------------------------------------------------------------------------------------------------------


 conjugate gradient relaxation of ions
 charge density and potential will be updated during run
 non-spin polarized calculation
 Variant of blocked Davidson
 Davidson routine will perform the subspace rotation
 perform sub-space diagonalisation
    after iterative eigenvector-optimisation
 modified Broyden-mixing scheme, WC =      100.0
 initial mixing is a Kerker type mixing with AMIX =  0.4000 and BMIX =      1.0000
 Hartree-type preconditioning will be used
 using additional bands            4
 reciprocal scheme for non local part
 use partial core corrections
 calculate Harris-corrections to forces 
   (improved forces if not selfconsistent)
 use gradient corrections 
 use of overlap-Matrix (Vanderbilt PP)
 Gauss-broadening in eV      SIGMA  =   0.05


--------------------------------------------------------------------------------------------------------


  energy-cutoff  :      520.00
  volume of cell :      113.81
      direct lattice vectors                 reciprocal lattice vectors
     3.846411000 -3.846411000  0.000000000     0.129991309 -0.129991309 -0.129991309
    -3.846411000  0.000000000 -3.846411000     0.000000000  0.000000000 -0.259982618
     3.846411000  3.846411000  0.000000000     0.129991309  0.129991309 -0.129991309

  length of vectors
     5.439646603  5.439646603  5.439646603     0.225151551  0.259982618  0.225151551


 
 k-points in units of 2pi/SCALE and weight: KPOINTS                                 
   0.00000000  0.00000000  0.00000000       0.002
   0.01624891 -0.01624891 -0.01624891       0.016
   0.03249783 -0.03249783 -0.03249783       0.016
   0.04874674 -0.04874674 -0.04874674       0.016
   0.06499565 -0.06499565 -0.06499565       0.008
   0.00000000  0.00000000 -0.03249783       0.012
   0.01624891 -0.01624891 -0.04874674       0.047
   0.03249783 -0.03249783 -0.06499565       0.047
   0.04874674 -0.04874674 -0.08124457       0.047
   0.06499565 -0.06499565 -0.09749348       0.047
  -0.04874674  0.04874674  0.01624891       0.047
  -0.03249783  0.03249783  0.00000000       0.023
   0.00000000  0.00000000 -0.06499565       0.012
   0.01624891 -0.01624891 -0.08124457       0.047
   0.03249783 -0.03249783 -0.09749348       0.047
   0.04874674 -0.04874674 -0.11374240       0.047
   0.06499565 -0.06499565 -0.12999131       0.023
   0.00000000  0.00000000 -0.09749348       0.012
   0.01624891 -0.01624891 -0.11374240       0.047
   0.03249783 -0.03249783 -0.12999131       0.023
   0.00000000  0.00000000 -0.12999131       0.006
   0.03249783  0.00000000 -0.06499565       0.047
   0.04874674 -0.01624891 -0.08124457       0.094
   0.06499565 -0.03249783 -0.09749348       0.047
   0.03249783  0.00000000 -0.09749348       0.047
   0.04874674 -0.01624891 -0.11374240       0.094
   0.06499565 -0.03249783 -0.12999131       0.047
   0.03249783  0.00000000 -0.12999131       0.023
   0.06499565  0.00000000 -0.12999131       0.012
 
 k-points in reciprocal lattice and weights: KPOINTS                                 
   0.00000000  0.00000000  0.00000000       0.002
   0.12500000  0.00000000  0.00000000       0.016
   0.25000000  0.00000000  0.00000000       0.016
   0.37500000  0.00000000  0.00000000       0.016
   0.50000000  0.00000000  0.00000000       0.008
   0.00000000  0.12500000  0.00000000       0.012
   0.12500000  0.12500000  0.00000000       0.047
   0.25000000  0.12500000  0.00000000       0.047
   0.37500000  0.12500000  0.00000000       0.047
   0.50000000  0.12500000  0.00000000       0.047
  -0.37500000  0.12500000  0.00000000       0.047
  -0.25000000  0.12500000  0.00000000       0.023
   0.00000000  0.25000000  0.00000000       0.012
   0.12500000  0.25000000  0.00000000       0.047
   0.25000000  0.25000000  0.00000000       0.047
   0.37500000  0.25000000  0.00000000       0.047
   0.50000000  0.25000000  0.00000000       0.023
   0.00000000  0.37500000  0.00000000       0.012
   0.12500000  0.37500000  0.00000000       0.047
   0.25000000  0.37500000  0.00000000       0.023
   0.00000000  0.50000000  0.00000000       0.006
   0.12500000  0.12500000  0.12500000       0.047
   0.25000000  0.12500000  0.12500000       0.094
   0.37500000  0.12500000  0.12500000       0.047
   0.12500000  0.25000000  0.12500000       0.047
   0.25000000  0.25000000  0.12500000       0.094
   0.37500000  0.25000000  0.12500000       0.047
   0.12500000  0.37500000  0.12500000       0.023
   0.25000000  0.25000000  0.25000000       0.012
 
 position of ions in fractional coordinates (direct lattice) 
   0.49999987  0.00000000  0.49999987
   0.75000175  0.50000117  0.25000058
   0.25000058  0.50000117  0.75000175
   0.00000000  0.00000000  0.00000000
 
 position of ions in cartesian coordinates  (Angst):
   3.84641000  0.00000000  0.00000000
   1.92321000 -1.92321000 -1.92321000
   1.92321000  1.92321000 -1.92321000
   0.00000000  0.00000000  0.00000000
 


--------------------------------------------------------------------------------------------------------


 k-point  1 :   0.0000 0.0000 0.0000  plane waves:    3119
 k-point  2 :   0.1250 0.0000 0.0000  plane waves:    3068
 k-point  3 :   0.2500 0.0000 0.0000  plane waves:    3053
 k-point  4 :   0.3750 0.0000 0.0000  plane waves:    3052
 k-point  5 :   0.5000 0.0000 0.0000  plane waves:    3040
 k-point  6 :   0.0000 0.1250 0.0000  plane waves:    3055
 k-point  7 :   0.1250 0.1250 0.0000  plane waves:    3055
 k-point  8 :   0.2500 0.1250 0.0000  plane waves:    3057
 k-point  9 :   0.3750 0.1250 0.0000  plane waves:    3062
 k-point 10 :   0.5000 0.1250 0.0000  plane waves:    3059
 k-point 11 :  -0.3750 0.1250 0.0000  plane waves:    3058
 k-point 12 :  -0.2500 0.1250 0.0000  plane waves:    3060
 k-point 13 :   0.0000 0.2500 0.0000  plane waves:    3066
 k-point 14 :   0.1250 0.2500 0.0000  plane waves:    3058
 k-point 15 :   0.2500 0.2500 0.0000  plane waves:    3062
 k-point 16 :   0.3750 0.2500 0.0000  plane waves:    3075
 k-point 17 :   0.5000 0.2500 0.0000  plane waves:    3082
 k-point 18 :   0.0000 0.3750 0.0000  plane waves:    3062
 k-point 19 :   0.1250 0.3750 0.0000  plane waves:    3071
 k-point 20 :   0.2500 0.3750 0.0000  plane waves:    3080
 k-point 21 :   0.0000 0.5000 0.0000  plane waves:    3026
 k-point 22 :   0.1250 0.1250 0.1250  plane waves:    3056
 k-point 23 :   0.2500 0.1250 0.1250  plane waves:    3067
 k-point 24 :   0.3750 0.1250 0.1250  plane waves:    3068
 k-point 25 :   0.1250 0.2500 0.1250  plane waves:    3059
 k-point 26 :   0.2500 0.2500 0.1250  plane waves:    3071
 k-point 27 :   0.3750 0.2500 0.1250  plane waves:    3074
 k-point 28 :   0.1250 0.3750 0.1250  plane waves:    3074
 k-point 29 :   0.2500 0.2500 0.2500  plane waves:    3052

 maximum and minimum number of plane-waves per node :       455      420

 maximum number of plane-waves:      3119
 maximum index in each direction: 
   IXMAX=   10   IYMAX=   10   IZMAX=   10
   IXMIN=  -10   IYMIN=  -10   IZMIN=  -10


 parallel 3D FFT for wavefunctions:
    minimum data exchange during FFTs selected (reduces bandwidth)
 parallel 3D FFT for charge:
    minimum data exchange during FFTs selected (reduces bandwidth)


 total amount of memory used by VASP MPI-rank0    46311. kBytes
=======================================================================

   base      :      30000. kBytes
   nonl-proj :       4127. kBytes
   fftplans  :       2889. kBytes
   grid      :       5395. kBytes
   one-center:          8. kBytes
   wavefun   :       3892. kBytes
 
     INWAV:  cpu time    0.0000: real time    0.0000
 Broyden mixing: mesh for mixing (old mesh)
   NGX = 21   NGY = 21   NGZ = 21
  (NGX  = 80   NGY  = 80   NGZ  = 80)
  gives a total of   9261 points

 initial charge density was supplied:
 charge density of overlapping atoms calculated
 number of electron      28.0000000 magnetization 
 keeping initial charge density in first step


--------------------------------------------------------------------------------------------------------


 Maximum index for augmentation-charges         4893 (set IRDMAX)


--------------------------------------------------------------------------------------------------------


 First call to EWALD:  gamma=   0.366
 Maximum number of real-space cells 3x 3x 3
 Maximum number of reciprocal cells 3x 3x 3

    FEWALD:  cpu time    0.0015: real time    0.0015


--------------------------------------- Iteration      1(   1)  ---------------------------------------


    POTLOK:  cpu time    0.0442: real time    0.0490
    SETDIJ:  cpu time    0.0037: real time    0.0037
     EDDAV:  cpu time    0.1894: real time    0.1896
       DOS:  cpu time    0.0005: real time    0.0005
    --------------------------------------------
      LOOP:  cpu time    0.2378: real time    0.2428

 eigenvalue-minimisations  :  1044
 total energy-change (2. order) : 0.2259712E+03  (-0.1357575E+04)
 number of electron      28.0000000 magnetization 
 augmentation part       28.0000000 magnetization 

 Free energy of the ion-electron system (eV)
  ---------------------------------------------------
  alpha Z        PSCENC =        52.41865611
  Ewald energy   TEWEN  =     -1361.33884147
  -Hartree energ DENC   =      -693.10075405
  -exchange      EXHF   =         0.00000000
  -V(xc)+E(xc)   XCENC  =        38.88268803
  PAW double counting   =      1762.39966399    -1880.54449946
  entropy T*S    EENTRO =        -0.00156863
  eigenvalues    EBANDS =      -149.78450783
  atomic energy  EATOM  =      2457.04034448
  Solvation  Ediel_sol  =         0.00000000
  ---------------------------------------------------
  free energy    TOTEN  =       225.97118118 eV

  energy without entropy =      225.97274981  energy(sigma->0) =      225.97196549


--------------------------------------------------------------------------------------------------------




--------------------------------------- Iteration      1(   2)  ---------------------------------------


     EDDAV:  cpu time    0.1781: real time    0.1803
       DOS:  cpu time    0.0004: real time    0.0004
    --------------------------------------------
      LOOP:  cpu time    0.1785: real time    0.1808

 eigenvalue-minimisations  :  1058
 total energy-change (2. order) :-0.2184608E+03  (-0.2147389E+03)
 number of electron      28.0000000 magnetization 
 augmentation part       28.0000000 magnetization 

 Free energy of the ion-electron system (eV)
  ---------------------------------------------------
  alpha Z        PSCENC =        52.41865611
  Ewald energy   TEWEN  =     -1361.33884147
  -Hartree energ DENC   =      -693.10075405
  -exchange      EXHF   =         0.00000000
  -V(xc)+E(xc)   XCENC  =        38.88268803
  PAW double counting   =      1762.39966399    -1880.54449946
  entropy T*S    EENTRO =        -0.00003377
  eigenvalues    EBANDS =      -368.24686868
  atomic energy  EATOM  =      2457.04034448
  Solvation  Ediel_sol  =         0.00000000
  ---------------------------------------------------
  free energy    TOTEN  =         7.51035519 eV

  energy without entropy =        7.51038896  energy(sigma->0) =        7.51037207


--------------------------------------------------------------------------------------------------------




--------------------------------------- Iteration      1(   3)  ---------------------------------------


     EDDAV:  cpu time    0.2464: real time    0.2468
       DOS:  cpu time    0.0002: real time    0.0002
    --------------------------------------------
      LOOP:  cpu time    0.2466: real time    0.2470

 eigenvalue-minimisations  :  1696
 total energy-change (2. order) :-0.1703554E+02  (-0.1694720E+02)
 number of electron      28.0000000 magnetization 
 augmentation part       28.0000000 magnetization 

 Free energy of the ion-electron system (eV)
  ---------------------------------------------------
  alpha Z        PSCENC =        52.41865611
  Ewald energy   TEWEN  =     -1361.33884147
  -Hartree energ DENC   =      -693.10075405
  -exchange      EXHF   =         0.00000000
  -V(xc)+E(xc)   XCENC  =        38.88268803
  PAW double counting   =      1762.39966399    -1880.54449946
  entropy T*S    EENTRO =        -0.00000000
  eigenvalues    EBANDS =      -385.28243893
  atomic energy  EATOM  =      2457.04034448
  Solvation  Ediel_sol  =         0.00000000
  ---------------------------------------------------
  free energy    TOTEN  =        -9.52518129 eV

  energy without entropy =       -9.52518129  energy(sigma->0) =       -9.52518129


--------------------------------------------------------------------------------------------------------




--------------------------------------- Iteration      1(   4)  ---------------------------------------


     EDDAV:  cpu time    0.2140: real time    0.2145
       DOS:  cpu time    0.0002: real time    0.0002
    --------------------------------------------
      LOOP:  cpu time    0.2142: real time    0.2147

 eigenvalue-minimisations  :  1482
 total energy-change (2. order) :-0.5212772E+00  (-0.5202216E+00)
 number of electron      28.0000000 magnetization 
 augmentation part       28.0000000 magnetization 

 Free energy of the ion-electron system (eV)
  ---------------------------------------------------
  alpha Z        PSCENC =        52.41865611
  Ewald energy   TEWEN  =     -1361.33884147
  -Hartree energ DENC   =      -693.10075405
  -exchange      EXHF   =         0.00000000
  -V(xc)+E(xc)   XCENC  =        38.88268803
  PAW double counting   =      1762.39966399    -1880.54449946
  entropy T*S    EENTRO =        -0.00000000
  eigenvalues    EBANDS =      -385.80371610
  atomic energy  EATOM  =      2457.04034448
  Solvation  Ediel_sol  =         0.00000000
  ---------------------------------------------------
  free energy    TOTEN  =       -10.04645846 eV

  energy without entropy =      -10.04645846  energy(sigma->0) =      -10.04645846


--------------------------------------------------------------------------------------------------------




--------------------------------------- Iteration      1(   5)  ---------------------------------------


     EDDAV:  cpu time    0.2393: real time    0.2396
       DOS:  cpu time    0.0002: real time    0.0002
    CHARGE:  cpu time    0.0259: real time    0.0259
    MIXING:  cpu time    0.0031: real time    0.0031
    --------------------------------------------
      LOOP:  cpu time    0.2686: real time    0.2689

 eigenvalue-minimisations  :  1704
 total energy-change (2. order) :-0.1501815E-01  (-0.1501215E-01)
 number of electron      27.9999990 magnetization 
 augmentation part        9.5500373 magnetization 

 Broyden mixing:
  rms(total) = 0.42882E+00    rms(broyden)= 0.42882E+00
  rms(prec ) = 0.93717E+00
  weight for this iteration     100.00

 Free energy of the ion-electron system (eV)
  ---------------------------------------------------
  alpha Z        PSCENC =        52.41865611
  Ewald energy   TEWEN  =     -1361.33884147
  -Hartree energ DENC   =      -693.10075405
  -exchange      EXHF   =         0.00000000
  -V(xc)+E(xc)   XCENC  =        38.88268803
  PAW double counting   =      1762.39966399    -1880.54449946
  entropy T*S    EENTRO =        -0.00000000
  eigenvalues    EBANDS =      -385.81873425
  atomic energy  EATOM  =      2457.04034448
  Solvation  Ediel_sol  =         0.00000000
  ---------------------------------------------------
  free energy    TOTEN  =       -10.06147661 eV

  energy without entropy =      -10.06147661  energy(sigma->0) =      -10.06147661


--------------------------------------------------------------------------------------------------------




--------------------------------------- Iteration      1(   6)  ---------------------------------------


    POTLOK:  cpu time    0.0418: real time    0.0421
    SETDIJ:  cpu time    0.0052: real time    0.0052
     EDDAV:  cpu time    0.2017: real time    0.2018
       DOS:  cpu time    0.0003: real time    0.0003
    CHARGE:  cpu time    0.0277: real time    0.0277
    MIXING:  cpu time    0.0031: real time    0.0031
    --------------------------------------------
      LOOP:  cpu time    0.2797: real time    0.2802

 eigenvalue-minimisations  :  1182
 total energy-change (2. order) : 0.4413355E+00  (-0.8824652E-01)
 number of electron      27.9999990 magnetization 
 augmentation part        9.6083017 magnetization 

 Broyden mixing:
  rms(total) = 0.32600E+00    rms(broyden)= 0.32600E+00
  rms(prec ) = 0.49640E+00
  weight for this iteration     100.00

 eigenvalues of (default mixing * dielectric matrix)
  average eigenvalue GAMMA=   2.1339
  2.1339

 Free energy of the ion-electron system (eV)
  ---------------------------------------------------
  alpha Z        PSCENC =        52.41865611
  Ewald energy   TEWEN  =     -1361.33884147
  -Hartree energ DENC   =      -686.65816354
  -exchange      EXHF   =         0.00000000
  -V(xc)+E(xc)   XCENC  =        38.93740008
  PAW double counting   =      1802.41666696    -1920.80855596
  entropy T*S    EENTRO =        -0.00000000
  eigenvalues    EBANDS =      -391.62764782
  atomic energy  EATOM  =      2457.04034448
  Solvation  Ediel_sol  =         0.00000000
  ---------------------------------------------------
  free energy    TOTEN  =        -9.62014115 eV

  energy without entropy =       -9.62014115  energy(sigma->0) =       -9.62014115


--------------------------------------------------------------------------------------------------------




--------------------------------------- Iteration      1(   7)  ---------------------------------------


    POTLOK:  cpu time    0.0450: real time    0.0456
    SETDIJ:  cpu time    0.0043: real time    0.0043
     EDDAV:  cpu time    0.2213: real time    0.2214
       DOS:  cpu time    0.0002: real time    0.0002
    CHARGE:  cpu time    0.0263: real time    0.0263
    MIXING:  cpu time    0.0021: real time    0.0021
    --------------------------------------------
      LOOP:  cpu time    0.2992: real time    0.2999

 eigenvalue-minimisations  :  1430
 total energy-change (2. order) : 0.7488155E-01  (-0.4675954E-01)
 number of electron      27.9999990 magnetization 
 augmentation part        9.6372807 magnetization 

 Broyden mixing:
  rms(total) = 0.18705E+00    rms(broyden)= 0.18705E+00
  rms(prec ) = 0.21641E+00
  weight for this iteration     100.00

 eigenvalues of (default mixing * dielectric matrix)
  average eigenvalue GAMMA=   2.2961
  1.4624  3.1297

 Free energy of the ion-electron system (eV)
  ---------------------------------------------------
  alpha Z        PSCENC =        52.41865611
  Ewald energy   TEWEN  =     -1361.33884147
  -Hartree energ DENC   =      -681.41373914
  -exchange      EXHF   =         0.00000000
  -V(xc)+E(xc)   XCENC  =        39.03887248
  PAW double counting   =      1864.46672713    -1983.60652648
  entropy T*S    EENTRO =        -0.00000000
  eigenvalues    EBANDS =      -396.15075271
  atomic energy  EATOM  =      2457.04034448
  Solvation  Ediel_sol  =         0.00000000
  ---------------------------------------------------
  free energy    TOTEN  =        -9.54525960 eV

  energy without entropy =       -9.54525960  energy(sigma->0) =       -9.54525960


--------------------------------------------------------------------------------------------------------




--------------------------------------- Iteration      1(   8)  ---------------------------------------


    POTLOK:  cpu time    0.0418: real time    0.0422
    SETDIJ:  cpu time    0.0044: real time    0.0044
     EDDAV:  cpu time    0.2285: real time    0.2286
       DOS:  cpu time    0.0003: real time    0.0003
    CHARGE:  cpu time    0.0261: real time    0.0261
    MIXING:  cpu time    0.0022: real time    0.0022
    --------------------------------------------
      LOOP:  cpu time    0.3033: real time    0.3038

 eigenvalue-minimisations  :  1424
 total energy-change (2. order) :-0.4517791E-03  (-0.4178030E-02)
 number of electron      27.9999990 magnetization 
 augmentation part        9.6144201 magnetization 

 Broyden mixing:
  rms(total) = 0.42117E-01    rms(broyden)= 0.42116E-01
  rms(prec ) = 0.51803E-01
  weight for this iteration     100.00

 eigenvalues of (default mixing * dielectric matrix)
  average eigenvalue GAMMA=   1.6417
  2.3626  1.0517  1.5107

 Free energy of the ion-electron system (eV)
  ---------------------------------------------------
  alpha Z        PSCENC =        52.41865611
  Ewald energy   TEWEN  =     -1361.33884147
  -Hartree energ DENC   =      -680.12998039
  -exchange      EXHF   =         0.00000000
  -V(xc)+E(xc)   XCENC  =        39.13221542
  PAW double counting   =      1935.27765641    -2054.99292281
  entropy T*S    EENTRO =        -0.00000000
  eigenvalues    EBANDS =      -396.95283914
  atomic energy  EATOM  =      2457.04034448
  Solvation  Ediel_sol  =         0.00000000
  ---------------------------------------------------
  free energy    TOTEN  =        -9.54571138 eV

  energy without entropy =       -9.54571138  energy(sigma->0) =       -9.54571138


--------------------------------------------------------------------------------------------------------




--------------------------------------- Iteration      1(   9)  ---------------------------------------


    POTLOK:  cpu time    0.0419: real time    0.0424
    SETDIJ:  cpu time    0.0043: real time    0.0043
     EDDAV:  cpu time    0.2127: real time    0.2127
       DOS:  cpu time    0.0003: real time    0.0003
    CHARGE:  cpu time    0.0262: real time    0.0262
    MIXING:  cpu time    0.0028: real time    0.0028
    --------------------------------------------
      LOOP:  cpu time    0.2883: real time    0.2887

 eigenvalue-minimisations  :  1304
 total energy-change (2. order) : 0.7576613E-03  (-0.4270876E-03)
 number of electron      27.9999990 magnetization 
 augmentation part        9.6180278 magnetization 

 Broyden mixing:
  rms(total) = 0.12747E-01    rms(broyden)= 0.12747E-01
  rms(prec ) = 0.16601E-01
  weight for this iteration     100.00

 eigenvalues of (default mixing * dielectric matrix)
  average eigenvalue GAMMA=   1.8977
  2.5619  2.5619  1.2335  1.2335

 Free energy of the ion-electron system (eV)
  ---------------------------------------------------
  alpha Z        PSCENC =        52.41865611
  Ewald energy   TEWEN  =     -1361.33884147
  -Hartree energ DENC   =      -679.99683691
  -exchange      EXHF   =         0.00000000
  -V(xc)+E(xc)   XCENC  =        39.12593587
  PAW double counting   =      1928.00554374    -2047.58464437
  entropy T*S    EENTRO =        -0.00000000
  eigenvalues    EBANDS =      -397.21511116
  atomic energy  EATOM  =      2457.04034448
  Solvation  Ediel_sol  =         0.00000000
  ---------------------------------------------------
  free energy    TOTEN  =        -9.54495372 eV

  energy without entropy =       -9.54495372  energy(sigma->0) =       -9.54495372


--------------------------------------------------------------------------------------------------------




--------------------------------------- Iteration      1(  10)  ---------------------------------------


    POTLOK:  cpu time    0.0421: real time    0.0424
    SETDIJ:  cpu time    0.0065: real time    0.0065
     EDDAV:  cpu time    0.2255: real time    0.2256
       DOS:  cpu time    0.0003: real time    0.0003
    CHARGE:  cpu time    0.0264: real time    0.0264
    MIXING:  cpu time    0.0024: real time    0.0024
    --------------------------------------------
      LOOP:  cpu time    0.3031: real time    0.3036

 eigenvalue-minimisations  :  1448
 total energy-change (2. order) :-0.1119774E-03  (-0.3685638E-04)
 number of electron      27.9999990 magnetization 
 augmentation part        9.6186246 magnetization 

 Broyden mixing:
  rms(total) = 0.26677E-02    rms(broyden)= 0.26677E-02
  rms(prec ) = 0.38847E-02
  weight for this iteration     100.00

 eigenvalues of (default mixing * dielectric matrix)
  average eigenvalue GAMMA=   1.7429
  2.7083  2.7083  1.4018  1.0846  0.8115

 Free energy of the ion-electron system (eV)
  ---------------------------------------------------
  alpha Z        PSCENC =        52.41865611
  Ewald energy   TEWEN  =     -1361.33884147
  -Hartree energ DENC   =      -679.99432945
  -exchange      EXHF   =         0.00000000
  -V(xc)+E(xc)   XCENC  =        39.13347686
  PAW double counting   =      1924.80741095    -2044.28061350
  entropy T*S    EENTRO =        -0.00000000
  eigenvalues    EBANDS =      -397.33116969
  atomic energy  EATOM  =      2457.04034448
  Solvation  Ediel_sol  =         0.00000000
  ---------------------------------------------------
  free energy    TOTEN  =        -9.54506570 eV

  energy without entropy =       -9.54506570  energy(sigma->0) =       -9.54506570


--------------------------------------------------------------------------------------------------------




--------------------------------------- Iteration      1(  11)  ---------------------------------------


    POTLOK:  cpu time    0.0440: real time    0.0440
    SETDIJ:  cpu time    0.0043: real time    0.0043
     EDDAV:  cpu time    0.1842: real time    0.1843
       DOS:  cpu time    0.0002: real time    0.0002
    --------------------------------------------
      LOOP:  cpu time    0.2327: real time    0.2328

 eigenvalue-minimisations  :  1132
 total energy-change (2. order) :-0.3377115E-05  (-0.2779216E-05)
 number of electron      27.9999990 magnetization 
 augmentation part        9.6186246 magnetization 

 Free energy of the ion-electron system (eV)
  ---------------------------------------------------
  alpha Z        PSCENC =        52.41865611
  Ewald energy   TEWEN  =     -1361.33884147
  -Hartree energ DENC   =      -679.96931514
  -exchange      EXHF   =         0.00000000
  -V(xc)+E(xc)   XCENC  =        39.13516853
  PAW double counting   =      1924.77630883    -2044.24323552
  entropy T*S    EENTRO =        -0.00000000
  eigenvalues    EBANDS =      -397.36415491
  atomic energy  EATOM  =      2457.04034448
  Solvation  Ediel_sol  =         0.00000000
  ---------------------------------------------------
  free energy    TOTEN  =        -9.54506908 eV

  energy without entropy =       -9.54506908  energy(sigma->0) =       -9.54506908


--------------------------------------------------------------------------------------------------------




 average (electrostatic) potential at core
  the test charge radii are     1.1045  0.9254  1.1712
  (the norm of the test charge is              1.0000)
       1 -35.9680       2 -47.7021       3 -47.7021       4 -88.8109
 
 
 
 E-fermi :   2.6299     XC(G=0):  -8.1664     alpha+bet : -8.4200


 k-point     1 :       0.0000    0.0000    0.0000
  band No.  band energies     occupation 
      1     -28.7124      2.00000
      2     -21.9085      2.00000
      3     -21.9085      2.00000
      4     -21.9085      2.00000
      5     -21.8969      2.00000
      6     -21.8969      2.00000
      7     -21.8969      2.00000
      8     -12.2367      2.00000
      9     -12.2367      2.00000
     10     -12.2367      2.00000
     11      -5.6988      2.00000
     12       2.3060      2.00000
     13       2.3060      2.00000
     14       2.3061      2.00000
     15       3.1296      0.00000
     16       5.0993      0.00000
     17       5.0993      0.00000
     18       5.0993      0.00000

 k-point     2 :       0.1250    0.0000    0.0000
  band No.  band energies     occupation 
      1     -28.7124      2.00000
      2     -21.9082      2.00000
      3     -21.9081      2.00000
      4     -21.9081      2.00000
      5     -21.8974      2.00000
      6     -21.8974      2.00000
      7     -21.8973      2.00000
      8     -12.2406      2.00000
      9     -12.2369      2.00000
     10     -12.2369      2.00000
     11      -5.6489      2.00000
     12       1.5951      2.00000
     13       2.2086      2.00000
     14       2.2086      2.00000
     15       3.7618      0.00000
     16       5.2315      0.00000
     17       5.2642      0.00000
     18       5.2642      0.00000

 k-point     3 :       0.2500    0.0000    0.0000
  band No.  band energies     occupation 
      1     -28.7123      2.00000
      2     -21.9072      2.00000
      3     -21.9069      2.00000
      4     -21.9069      2.00000
      5     -21.8987      2.00000
      6     -21.8987      2.00000
      7     -21.8986      2.00000
      8     -12.2498      2.00000
      9     -12.2373      2.00000
     10     -12.2373      2.00000
     11      -5.5227      2.00000
     12       0.7438      2.00000
     13       2.0068      2.00000
     14       2.0068      2.00000
     15       4.1411      0.00000
     16       5.6378      0.00000
     17       5.6378      0.00000
     18       5.9986      0.00000

 k-point     4 :       0.3750    0.0000    0.0000
  band No.  band energies     occupation 
      1     -28.7121      2.00000
      2     -21.9055      2.00000
      3     -21.9051      2.00000
      4     -21.9051      2.00000
      5     -21.9006      2.00000
      6     -21.9006      2.00000
      7     -21.9005      2.00000
      8     -12.2588      2.00000
      9     -12.2378      2.00000
     10     -12.2378      2.00000
     11      -5.3867      2.00000
     12       0.1497      2.00000
     13       1.8370      2.00000
     14       1.8370      2.00000
     15       4.2175      0.00000
     16       6.0156      0.00000
     17       6.0156      0.00000
     18       6.9855      0.00000

 k-point     5 :       0.5000    0.0000    0.0000
  band No.  band energies     occupation 
      1     -28.7121      2.00000
      2     -21.9037      2.00000
      3     -21.9029      2.00000
      4     -21.9029      2.00000
      5     -21.9029      2.00000
      6     -21.9028      2.00000
      7     -21.9025      2.00000
      8     -12.2625      2.00000
      9     -12.2380      2.00000
     10     -12.2380      2.00000
     11      -5.3269      2.00000
     12      -0.0652      2.00000
     13       1.7735      2.00000
     14       1.7735      2.00000
     15       4.2459      0.00000
     16       6.1911      0.00000
     17       6.1911      0.00000
     18       6.9415      0.00000

 k-point     6 :       0.0000    0.1250    0.0000
  band No.  band energies     occupation 
      1     -28.7124      2.00000
      2     -21.9088      2.00000
      3     -21.9088      2.00000
      4     -21.9064      2.00000
      5     -21.8991      2.00000
      6     -21.8967      2.00000
      7     -21.8967      2.00000
      8     -12.2405      2.00000
      9     -12.2376      2.00000
     10     -12.2376      2.00000
     11      -5.6339      2.00000
     12       1.5209      2.00000
     13       2.1397      2.00000
     14       2.1397      2.00000
     15       3.9489      0.00000
     16       4.8165      0.00000
     17       5.5205      0.00000
     18       5.5205      0.00000

 k-point     7 :       0.1250    0.1250    0.0000
  band No.  band energies     occupation 
      1     -28.7123      2.00000
      2     -21.9088      2.00000
      3     -21.9087      2.00000
      4     -21.9042      2.00000
      5     -21.9014      2.00000
      6     -21.8969      2.00000
      7     -21.8969      2.00000
      8     -12.2471      2.00000
      9     -12.2384      2.00000
     10     -12.2381      2.00000
     11      -5.5372      2.00000
     12       0.9169      2.00000
     13       1.9360      2.00000
     14       1.9675      2.00000
     15       4.3702      0.00000
     16       4.8901      0.00000
     17       5.9413      0.00000
     18       5.9789      0.00000

 k-point     8 :       0.2500    0.1250    0.0000
  band No.  band energies     occupation 
      1     -28.7121      2.00000
      2     -21.9078      2.00000
      3     -21.9077      2.00000
      4     -21.9039      2.00000
      5     -21.9018      2.00000
      6     -21.8982      2.00000
      7     -21.8981      2.00000
      8     -12.2554      2.00000
      9     -12.2390      2.00000
     10     -12.2389      2.00000
     11      -5.4083      2.00000
     12       0.3521      2.00000
     13       1.6851      2.00000
     14       1.8089      2.00000
     15       4.4612      0.00000
     16       5.5428      0.00000
     17       6.2211      0.00000
     18       6.2535      0.00000

 k-point     9 :       0.3750    0.1250    0.0000
  band No.  band energies     occupation 
      1     -28.7121      2.00000
      2     -21.9067      2.00000
      3     -21.9059      2.00000
      4     -21.9056      2.00000
      5     -21.9002      2.00000
      6     -21.8999      2.00000
      7     -21.8994      2.00000
      8     -12.2604      2.00000
      9     -12.2401      2.00000
     10     -12.2387      2.00000
     11      -5.3237      2.00000
     12       0.0538      2.00000
     13       1.5242      2.00000
     14       1.7377      2.00000
     15       4.5698      0.00000
     16       5.7199      0.00000
     17       6.3753      0.00000
     18       6.7849      0.00000

 k-point    10 :       0.5000    0.1250    0.0000
  band No.  band energies     occupation 
      1     -28.7121      2.00000
      2     -21.9083      2.00000
      3     -21.9036      2.00000
      4     -21.9035      2.00000
      5     -21.9025      2.00000
      6     -21.9022      2.00000
      7     -21.8976      2.00000
      8     -12.2592      2.00000
      9     -12.2407      2.00000
     10     -12.2380      2.00000
     11      -5.3416      2.00000
     12       0.1162      2.00000
     13       1.5077      2.00000
     14       1.7814      2.00000
     15       4.6277      0.00000
     16       5.7511      0.00000
     17       6.1595      0.00000
     18       6.9161      0.00000

 k-point    11 :      -0.3750    0.1250    0.0000
  band No.  band energies     occupation 
      1     -28.7122      2.00000
      2     -21.9093      2.00000
      3     -21.9050      2.00000
      4     -21.9045      2.00000
      5     -21.9011      2.00000
      6     -21.9009      2.00000
      7     -21.8965      2.00000
      8     -12.2528      2.00000
      9     -12.2403      2.00000
     10     -12.2372      2.00000
     11      -5.4490      2.00000
     12       0.5144      2.00000
     13       1.6505      2.00000
     14       1.9268      2.00000
     15       4.5845      0.00000
     16       5.6961      0.00000
     17       5.7255      0.00000
     18       6.1011      0.00000

 k-point    12 :      -0.2500    0.1250    0.0000
  band No.  band energies     occupation 
      1     -28.7123      2.00000
      2     -21.9092      2.00000
      3     -21.9069      2.00000
      4     -21.9066      2.00000
      5     -21.8990      2.00000
      6     -21.8988      2.00000
      7     -21.8965      2.00000
      8     -12.2450      2.00000
      9     -12.2387      2.00000
     10     -12.2367      2.00000
     11      -5.5751      2.00000
     12       1.1014      2.00000
     13       1.9395      2.00000
     14       2.1096      2.00000
     15       4.2715      0.00000
     16       5.1913      0.00000
     17       5.3591      0.00000
     18       5.8320      0.00000

 k-point    13 :       0.0000    0.2500    0.0000
  band No.  band energies     occupation 
      1     -28.7122      2.00000
      2     -21.9097      2.00000
      3     -21.9097      2.00000
      4     -21.9043      2.00000
      5     -21.9012      2.00000
      6     -21.8961      2.00000
      7     -21.8961      2.00000
      8     -12.2486      2.00000
      9     -12.2398      2.00000
     10     -12.2398      2.00000
     11      -5.4848      2.00000
     12       0.7625      2.00000
     13       1.8444      2.00000
     14       1.8444      2.00000
     15       4.3103      0.00000
     16       4.5756      0.00000
     17       6.5434      0.00000
     18       6.6306      0.00000

 k-point    14 :       0.1250    0.2500    0.0000
  band No.  band energies     occupation 
      1     -28.7121      2.00000
      2     -21.9097      2.00000
      3     -21.9096      2.00000
      4     -21.9071      2.00000
      5     -21.8986      2.00000
      6     -21.8963      2.00000
      7     -21.8963      2.00000
      8     -12.2534      2.00000
      9     -12.2414      2.00000
     10     -12.2406      2.00000
     11      -5.3932      2.00000
     12       0.4830      2.00000
     13       1.5656      2.00000
     14       1.7203      2.00000
     15       4.3025      0.00000
     16       4.8302      0.00000
     17       6.4149      0.00000
     18       6.7902      0.00000

 k-point    15 :       0.2500    0.2500    0.0000
  band No.  band energies     occupation 
      1     -28.7120      2.00000
      2     -21.9096      2.00000
      3     -21.9085      2.00000
      4     -21.9081      2.00000
      5     -21.8977      2.00000
      6     -21.8975      2.00000
      7     -21.8965      2.00000
      8     -12.2564      2.00000
      9     -12.2443      2.00000
     10     -12.2405      2.00000
     11      -5.3151      2.00000
     12       0.3221      2.00000
     13       1.1810      2.00000
     14       1.6571      2.00000
     15       4.4757      0.00000
     16       5.5965      0.00000
     17       6.1336      0.00000
     18       6.8574      0.00000

 k-point    16 :       0.3750    0.2500    0.0000
  band No.  band energies     occupation 
      1     -28.7120      2.00000
      2     -21.9106      2.00000
      3     -21.9065      2.00000
      4     -21.9061      2.00000
      5     -21.8999      2.00000
      6     -21.8994      2.00000
      7     -21.8954      2.00000
      8     -12.2558      2.00000
      9     -12.2468      2.00000
     10     -12.2394      2.00000
     11      -5.2992      2.00000
     12       0.3210      2.00000
     13       0.9844      2.00000
     14       1.6827      2.00000
     15       4.8175      0.00000
     16       5.8485      0.00000
     17       6.6291      0.00000
     18       6.6390      0.00000

 k-point    17 :       0.5000    0.2500    0.0000
  band No.  band energies     occupation 
      1     -28.7121      2.00000
      2     -21.9106      2.00000
      3     -21.9039      2.00000
      4     -21.9035      2.00000
      5     -21.9025      2.00000
      6     -21.9019      2.00000
      7     -21.8954      2.00000
      8     -12.2544      2.00000
      9     -12.2451      2.00000
     10     -12.2380      2.00000
     11      -5.3561      2.00000
     12       0.3845      2.00000
     13       1.1711      2.00000
     14       1.7893      2.00000
     15       5.1806      0.00000
     16       5.7649      0.00000
     17       5.8934      0.00000
     18       6.1263      0.00000

 k-point    18 :       0.0000    0.3750    0.0000
  band No.  band energies     occupation 
      1     -28.7120      2.00000
      2     -21.9105      2.00000
      3     -21.9105      2.00000
      4     -21.9096      2.00000
      5     -21.8961      2.00000
      6     -21.8955      2.00000
      7     -21.8955      2.00000
      8     -12.2555      2.00000
      9     -12.2420      2.00000
     10     -12.2420      2.00000
     11      -5.3502      2.00000
     12       0.4038      2.00000
     13       1.6296      2.00000
     14       1.6296      2.00000
     15       3.9289      0.00000
     16       4.3511      0.00000
     17       7.1743      0.00000
     18       7.2539      0.00000

 k-point    19 :       0.1250    0.3750    0.0000
  band No.  band energies     occupation 
      1     -28.7120      2.00000
      2     -21.9113      2.00000
      3     -21.9103      2.00000
      4     -21.9101      2.00000
      5     -21.8959      2.00000
      6     -21.8958      2.00000
      7     -21.8946      2.00000
      8     -12.2565      2.00000
      9     -12.2443      2.00000
     10     -12.2422      2.00000
     11      -5.3048      2.00000
     12       0.3837      2.00000
     13       1.3065      2.00000
     14       1.5837      2.00000
     15       4.0403      0.00000
     16       4.5183      0.00000
     17       7.2477      0.00000
     18       7.3746      0.00000

 k-point    20 :       0.2500    0.3750    0.0000
  band No.  band energies     occupation 
      1     -28.7120      2.00000
      2     -21.9117      2.00000
      3     -21.9088      2.00000
      4     -21.9085      2.00000
      5     -21.8975      2.00000
      6     -21.8972      2.00000
      7     -21.8944      2.00000
      8     -12.2537      2.00000
      9     -12.2492      2.00000
     10     -12.2411      2.00000
     11      -5.2839      2.00000
     12       0.5522      2.00000
     13       0.7825      2.00000
     14       1.6038      2.00000
     15       4.3352      0.00000
     16       5.4202      0.00000
     17       7.0014      0.00000
     18       7.1677      0.00000

 k-point    21 :       0.0000    0.5000    0.0000
  band No.  band energies     occupation 
      1     -28.7120      2.00000
      2     -21.9117      2.00000
      3     -21.9109      2.00000
      4     -21.9109      2.00000
      5     -21.8953      2.00000
      6     -21.8953      2.00000
      7     -21.8940      2.00000
      8     -12.2579      2.00000
      9     -12.2429      2.00000
     10     -12.2429      2.00000
     11      -5.3001      2.00000
     12       0.3282      2.00000
     13       1.5550      2.00000
     14       1.5550      2.00000
     15       3.7925      0.00000
     16       4.0957      0.00000
     17       7.5552      0.00000
     18       7.9069      0.00000

 k-point    22 :       0.1250    0.1250    0.1250
  band No.  band energies     occupation 
      1     -28.7122      2.00000
      2     -21.9099      2.00000
      3     -21.9075      2.00000
      4     -21.9042      2.00000
      5     -21.9015      2.00000
      6     -21.8983      2.00000
      7     -21.8959      2.00000
      8     -12.2515      2.00000
      9     -12.2413      2.00000
     10     -12.2383      2.00000
     11      -5.4428      2.00000
     12       0.5921      2.00000
     13       1.5908      2.00000
     14       1.8439      2.00000
     15       4.8229      0.00000
     16       4.8758      0.00000
     17       6.0064      0.00000
     18       6.3651      0.00000

 k-point    23 :       0.2500    0.1250    0.1250
  band No.  band energies     occupation 
      1     -28.7121      2.00000
      2     -21.9101      2.00000
      3     -21.9067      2.00000
      4     -21.9055      2.00000
      5     -21.9005      2.00000
      6     -21.8990      2.00000
      7     -21.8959      2.00000
      8     -12.2558      2.00000
      9     -12.2436      2.00000
     10     -12.2392      2.00000
     11      -5.3439      2.00000
     12       0.3255      2.00000
     13       1.2871      2.00000
     14       1.6887      2.00000
     15       4.9243      0.00000
     16       5.5787      0.00000
     17       5.7686      0.00000
     18       6.7423      0.00000

 k-point    24 :       0.3750    0.1250    0.1250
  band No.  band energies     occupation 
      1     -28.7120      2.00000
      2     -21.9095      2.00000
      3     -21.9083      2.00000
      4     -21.9031      2.00000
      5     -21.9029      2.00000
      6     -21.8971      2.00000
      7     -21.8970      2.00000
      8     -12.2576      2.00000
      9     -12.2442      2.00000
     10     -12.2398      2.00000
     11      -5.3015      2.00000
     12       0.2202      2.00000
     13       1.1785      2.00000
     14       1.6243      2.00000
     15       5.0713      0.00000
     16       5.3315      0.00000
     17       6.6588      0.00000
     18       6.6733      0.00000

 k-point    25 :       0.1250    0.2500    0.1250
  band No.  band energies     occupation 
      1     -28.7120      2.00000
      2     -21.9109      2.00000
      3     -21.9093      2.00000
      4     -21.9083      2.00000
      5     -21.8978      2.00000
      6     -21.8963      2.00000
      7     -21.8953      2.00000
      8     -12.2551      2.00000
      9     -12.2440      2.00000
     10     -12.2416      2.00000
     11      -5.3285      2.00000
     12       0.4147      2.00000
     13       1.3371      2.00000
     14       1.5203      2.00000
     15       4.4903      0.00000
     16       4.8361      0.00000
     17       6.3592      0.00000
     18       7.3388      0.00000

 k-point    26 :       0.2500    0.2500    0.1250
  band No.  band energies     occupation 
      1     -28.7120      2.00000
      2     -21.9115      2.00000
      3     -21.9099      2.00000
      4     -21.9060      2.00000
      5     -21.9001      2.00000
      6     -21.8955      2.00000
      7     -21.8950      2.00000
      8     -12.2540      2.00000
      9     -12.2477      2.00000
     10     -12.2420      2.00000
     11      -5.2868      2.00000
     12       0.4974      2.00000
     13       0.9393      2.00000
     14       1.4340      2.00000
     15       4.7660      0.00000
     16       5.4681      0.00000
     17       6.1534      0.00000
     18       6.9263      0.00000

 k-point    27 :       0.3750    0.2500    0.1250
  band No.  band energies     occupation 
      1     -28.7120      2.00000
      2     -21.9113      2.00000
      3     -21.9089      2.00000
      4     -21.9033      2.00000
      5     -21.9028      2.00000
      6     -21.8968      2.00000
      7     -21.8948      2.00000
      8     -12.2532      2.00000
      9     -12.2488      2.00000
     10     -12.2407      2.00000
     11      -5.2933      2.00000
     12       0.4852      2.00000
     13       0.8737      2.00000
     14       1.5205      2.00000
     15       5.1196      0.00000
     16       5.7358      0.00000
     17       5.8605      0.00000
     18       6.7570      0.00000

 k-point    28 :       0.1250    0.3750    0.1250
  band No.  band energies     occupation 
      1     -28.7120      2.00000
      2     -21.9120      2.00000
      3     -21.9106      2.00000
      4     -21.9086      2.00000
      5     -21.8976      2.00000
      6     -21.8951      2.00000
      7     -21.8942      2.00000
      8     -12.2557      2.00000
      9     -12.2451      2.00000
     10     -12.2434      2.00000
     11      -5.2877      2.00000
     12       0.4414      2.00000
     13       1.2485      2.00000
     14       1.3418      2.00000
     15       4.3712      0.00000
     16       4.6113      0.00000
     17       7.1299      0.00000
     18       7.1707      0.00000

 k-point    29 :       0.2500    0.2500    0.2500
  band No.  band energies     occupation 
      1     -28.7120      2.00000
      2     -21.9122      2.00000
      3     -21.9104      2.00000
      4     -21.9031      2.00000
      5     -21.9031      2.00000
      6     -21.8947      2.00000
      7     -21.8946      2.00000
      8     -12.2504      2.00000
      9     -12.2504      2.00000
     10     -12.2439      2.00000
     11      -5.2752      2.00000
     12       0.7704      2.00000
     13       0.7704      2.00000
     14       1.1664      2.00000
     15       5.3188      0.00000
     16       5.6429      0.00000
     17       5.6429      0.00000
     18       6.4152      0.00000


--------------------------------------------------------------------------------------------------------


 soft charge-density along one line, spin component           1
         0         1         2         3         4         5         6         7         8         9
 total charge-density along one line
 
 pseudopotential strength for first ion, spin component:           1
-14.803   0.055  -0.000  -0.000   0.000  -0.000  -0.000   0.000
  0.055  -2.092  -0.000  -0.000   0.000  -0.000  -0.000   0.000
 -0.000  -0.000 -16.947   0.000   0.000 -16.693   0.000   0.000
 -0.000  -0.000   0.000 -16.947   0.000   0.000 -16.693   0.000
  0.000   0.000   0.000   0.000 -16.947   0.000   0.000 -16.693
 -0.000  -0.000 -16.693   0.000   0.000 -16.437   0.000   0.000
 -0.000  -0.000   0.000 -16.693   0.000   0.000 -16.437   0.000
[...]
  band No.  band energies     occupation 
      1     -28.9737      2.00000
      2     -22.1706      2.00000
      3     -22.1705      2.00000
      4     -22.1684      2.00000
      5     -22.1612      2.00000
      6     -22.1593      2.00000
      7     -22.1593      2.00000
      8     -12.5055      2.00000
      9     -12.4957      2.00000
     10     -12.4951      2.00000
     11      -5.5716      2.00000
     12       0.3113      2.00000
     13       1.3701      2.00000
     14       1.5191      2.00000
     15       4.0453      0.00000
     16       4.5013      0.00000
     17       6.0435      0.00000
     18       6.5111      0.00000

 k-point    15 :       0.2500    0.2500    0.0000
  band No.  band energies     occupation 
      1     -28.9736      2.00000
      2     -22.1705      2.00000
      3     -22.1696      2.00000
      4     -22.1693      2.00000
      5     -22.1605      2.00000
      6     -22.1603      2.00000
      7     -22.1595      2.00000
      8     -12.5079      2.00000
      9     -12.4981      2.00000
     10     -12.4950      2.00000
     11      -5.5019      2.00000
     12       0.1616      2.00000
     13       0.9979      2.00000
     14       1.4624      2.00000
     15       4.1889      0.00000
     16       5.2735      0.00000
     17       5.7707      0.00000
     18       6.5539      0.00000

 k-point    16 :       0.3750    0.2500    0.0000
  band No.  band energies     occupation 
      1     -28.9736      2.00000
      2     -22.1714      2.00000
      3     -22.1679      2.00000
      4     -22.1676      2.00000
      5     -22.1623      2.00000
      6     -22.1619      2.00000
      7     -22.1585      2.00000
      8     -12.5075      2.00000
      9     -12.5001      2.00000
     10     -12.4941      2.00000
     11      -5.4882      2.00000
     12       0.1640      2.00000
     13       0.8048      2.00000
     14       1.4921      2.00000
     15       4.5059      0.00000
     16       5.5039      0.00000
     17       6.2876      0.00000
     18       6.3539      0.00000

 k-point    17 :       0.5000    0.2500    0.0000
  band No.  band energies     occupation 
      1     -28.9737      2.00000
      2     -22.1713      2.00000
      3     -22.1657      2.00000
      4     -22.1654      2.00000
      5     -22.1645      2.00000
      6     -22.1640      2.00000
      7     -22.1585      2.00000
      8     -12.5063      2.00000
      9     -12.4987      2.00000
     10     -12.4930      2.00000
     11      -5.5395      2.00000
     12       0.2211      2.00000
     13       0.9860      2.00000
     14       1.5988      2.00000
     15       4.8189      0.00000
     16       5.4431      0.00000
     17       5.5698      0.00000
     18       5.8691      0.00000

 k-point    18 :       0.0000    0.3750    0.0000
  band No.  band energies     occupation 
      1     -28.9736      2.00000
      2     -22.1713      2.00000
      3     -22.1713      2.00000
      4     -22.1705      2.00000
      5     -22.1591      2.00000
      6     -22.1586      2.00000
      7     -22.1586      2.00000
      8     -12.5072      2.00000
      9     -12.4962      2.00000
     10     -12.4962      2.00000
     11      -5.5320      2.00000
     12       0.2356      2.00000
     13       1.4282      2.00000
     14       1.4282      2.00000
     15       3.6963      0.00000
     16       4.0347      0.00000
     17       6.7664      0.00000
     18       7.0034      0.00000

 k-point    19 :       0.1250    0.3750    0.0000
  band No.  band energies     occupation 
      1     -28.9736      2.00000
      2     -22.1719      2.00000
      3     -22.1711      2.00000
      4     -22.1709      2.00000
      5     -22.1590      2.00000
      6     -22.1589      2.00000
      7     -22.1579      2.00000
      8     -12.5081      2.00000
      9     -12.4982      2.00000
     10     -12.4964      2.00000
     11      -5.4910      2.00000
     12       0.2174      2.00000
     13       1.1166      2.00000
     14       1.3852      2.00000
     15       3.7886      0.00000
     16       4.2138      0.00000
     17       6.8563      0.00000
     18       7.0952      0.00000

 k-point    20 :       0.2500    0.3750    0.0000
  band No.  band energies     occupation 
      1     -28.9736      2.00000
      2     -22.1722      2.00000
      3     -22.1698      2.00000
      4     -22.1696      2.00000
      5     -22.1603      2.00000
      6     -22.1601      2.00000
      7     -22.1577      2.00000
      8     -12.5059      2.00000
      9     -12.5021      2.00000
     10     -12.4955      2.00000
     11      -5.4731      2.00000
     12       0.3820      2.00000
     13       0.6111      2.00000
     14       1.4095      2.00000
     15       4.0568      0.00000
     16       5.1063      0.00000
     17       6.6231      0.00000
     18       6.7907      0.00000

 k-point    21 :       0.0000    0.5000    0.0000
  band No.  band energies     occupation 
      1     -28.9736      2.00000
      2     -22.1724      2.00000
      3     -22.1716      2.00000
      4     -22.1716      2.00000
      5     -22.1584      2.00000
      6     -22.1584      2.00000
      7     -22.1573      2.00000
      8     -12.5093      2.00000
      9     -12.4970      2.00000
     10     -12.4970      2.00000
     11      -5.4861      2.00000
     12       0.1628      2.00000
     13       1.3551      2.00000
     14       1.3551      2.00000
     15       3.5625      0.00000
     16       3.7919      0.00000
     17       7.2971      0.00000
     18       7.5516      0.00000

 k-point    22 :       0.1250    0.1250    0.1250
  band No.  band energies     occupation 
      1     -28.9737      2.00000
      2     -22.1708      2.00000
      3     -22.1688      2.00000
      4     -22.1659      2.00000
      5     -22.1637      2.00000
      6     -22.1610      2.00000
      7     -22.1589      2.00000
      8     -12.5038      2.00000
      9     -12.4956      2.00000
     10     -12.4932      2.00000
     11      -5.6168      2.00000
     12       0.4141      2.00000
     13       1.3933      2.00000
     14       1.6462      2.00000
     15       4.5069      0.00000
     16       4.5648      0.00000
     17       5.6935      0.00000
     18       6.0756      0.00000

 k-point    23 :       0.2500    0.1250    0.1250
  band No.  band energies     occupation 
      1     -28.9736      2.00000
      2     -22.1709      2.00000
      3     -22.1681      2.00000
      4     -22.1671      2.00000
      5     -22.1628      2.00000
      6     -22.1616      2.00000
      7     -22.1590      2.00000
      8     -12.5074      2.00000
      9     -12.4975      2.00000
     10     -12.4939      2.00000
     11      -5.5284      2.00000
     12       0.1645      2.00000
     13       1.0997      2.00000
     14       1.4974      2.00000
     15       4.6066      0.00000
     16       5.2507      0.00000
     17       5.4502      0.00000
     18       6.4252      0.00000

 k-point    24 :       0.3750    0.1250    0.1250
  band No.  band energies     occupation 
      1     -28.9736      2.00000
      2     -22.1704      2.00000
      3     -22.1694      2.00000
      4     -22.1650      2.00000
      5     -22.1649      2.00000
      6     -22.1599      2.00000
      7     -22.1599      2.00000
      8     -12.5090      2.00000
      9     -12.4980      2.00000
     10     -12.4944      2.00000
     11      -5.4905      2.00000
     12       0.0666      2.00000
     13       0.9948      2.00000
     14       1.4349      2.00000
     15       4.7247      0.00000
     16       5.0374      0.00000
     17       6.3299      0.00000
     18       6.3556      0.00000

 k-point    25 :       0.1250    0.2500    0.1250
  band No.  band energies     occupation 
      1     -28.9736      2.00000
      2     -22.1716      2.00000
      3     -22.1703      2.00000
      4     -22.1694      2.00000
      5     -22.1605      2.00000
      6     -22.1593      2.00000
      7     -22.1585      2.00000
      8     -12.5069      2.00000
      9     -12.4979      2.00000
     10     -12.4959      2.00000
     11      -5.5132      2.00000
     12       0.2481      2.00000
     13       1.1461      2.00000
     14       1.3281      2.00000
     15       4.2380      0.00000
     16       4.5067      0.00000
     17       5.9981      0.00000
     18       7.0317      0.00000

 k-point    26 :       0.2500    0.2500    0.1250
  band No.  band energies     occupation 
      1     -28.9736      2.00000
      2     -22.1720      2.00000
      3     -22.1709      2.00000
      4     -22.1675      2.00000
      5     -22.1625      2.00000
      6     -22.1586      2.00000
      7     -22.1582      2.00000
      8     -12.5060      2.00000
      9     -12.5009      2.00000
     10     -12.4962      2.00000
     11      -5.4759      2.00000
     12       0.3310      2.00000
     13       0.7610      2.00000
     14       1.2454      2.00000
     15       4.4787      0.00000
     16       5.1581      0.00000
     17       5.8054      0.00000
     18       6.5878      0.00000

 k-point    27 :       0.3750    0.2500    0.1250
  band No.  band energies     occupation 
      1     -28.9736      2.00000
      2     -22.1720      2.00000
      3     -22.1699      2.00000
      4     -22.1652      2.00000
      5     -22.1648      2.00000
      6     -22.1598      2.00000
      7     -22.1581      2.00000
      8     -12.5054      2.00000
      9     -12.5019      2.00000
     10     -12.4952      2.00000
     11      -5.4823      2.00000
     12       0.3219      2.00000
     13       0.6958      2.00000
     14       1.3323      2.00000
     15       4.8155      0.00000
     16       5.4425      0.00000
     17       5.4977      0.00000
     18       6.4230      0.00000

 k-point    28 :       0.1250    0.3750    0.1250
  band No.  band energies     occupation 
      1     -28.9736      2.00000
      2     -22.1725      2.00000
      3     -22.1714      2.00000
      4     -22.1697      2.00000
      5     -22.1604      2.00000
      6     -22.1583      2.00000
      7     -22.1575      2.00000
      8     -12.5075      2.00000
      9     -12.4988      2.00000
     10     -12.4974      2.00000
     11      -5.4757      2.00000
     12       0.2736      2.00000
     13       1.0593      2.00000
     14       1.1533      2.00000
     15       4.1212      0.00000
     16       4.2953      0.00000
     17       6.7758      0.00000
     18       6.8363      0.00000

 k-point    29 :       0.2500    0.2500    0.2500
  band No.  band energies     occupation 
      1     -28.9736      2.00000
      2     -22.1726      2.00000
      3     -22.1713      2.00000
      4     -22.1650      2.00000
      5     -22.1650      2.00000
      6     -22.1579      2.00000
      7     -22.1579      2.00000
      8     -12.5031      2.00000
      9     -12.5031      2.00000
     10     -12.4978      2.00000
     11      -5.4652      2.00000
     12       0.5947      2.00000
     13       0.5947      2.00000
     14       0.9876      2.00000
     15       5.0059      0.00000
     16       5.3529      0.00000
     17       5.3529      0.00000
     18       6.0227      0.00000


--------------------------------------------------------------------------------------------------------


 soft charge-density along one line, spin component           1
         0         1         2         3         4         5         6         7         8         9
 total charge-density along one line
 
 pseudopotential strength for first ion, spin component:           1
-14.787  -0.006  -0.000  -0.000   0.000  -0.000  -0.000   0.000
 -0.006  -2.052  -0.000  -0.000   0.000  -0.000  -0.000   0.000
 -0.000  -0.000 -17.015   0.000   0.000 -16.760   0.000   0.000
 -0.000  -0.000   0.000 -17.015   0.000   0.000 -16.760   0.000
  0.000   0.000   0.000   0.000 -17.015   0.000   0.000 -16.760
 -0.000  -0.000 -16.760   0.000   0.000 -16.501   0.000   0.000
 -0.000  -0.000   0.000 -16.760   0.000   0.000 -16.501   0.000
  0.000   0.000   0.000   0.000 -16.760   0.000   0.000 -16.501
  0.000   0.000   0.000   0.000  -0.000   0.000   0.000  -0.000
  0.000   0.000  -0.000  -0.000   0.000  -0.000  -0.000   0.000
  0.000   0.000   0.000  -0.000  -0.000   0.000  -0.000  -0.000
  0.000   0.000   0.000   0.000  -0.000   0.000   0.000  -0.000
 -0.000  -0.000   0.000   0.000   0.000   0.000   0.000   0.000
 total augmentation occupancy for first ion, spin component:           1
  2.001  -0.001   0.000   0.000   0.000   0.000   0.000   0.000  -0.000   0.000   0.000   0.000   0.000
 -0.001   0.559   0.000   0.000   0.000   0.000   0.000   0.000   0.000  -0.000   0.000  -0.000   0.000
  0.000   0.000   4.095   0.000   0.000  -2.098  -0.000   0.000   0.000   0.000   0.000   0.000   0.000
  0.000   0.000   0.000   4.095  -0.000  -0.000  -2.098  -0.000   0.000   0.000   0.000   0.000   0.000
  0.000   0.000  -0.000   0.000   4.095   0.000   0.000  -2.098   0.000   0.000   0.000   0.000   0.000
  0.000   0.000  -2.098  -0.000   0.000   2.105   0.000  -0.000   0.000   0.000   0.000   0.000   0.000
  0.000   0.000  -0.000  -2.098  -0.000   0.000   2.105  -0.000   0.000   0.000   0.000   0.000   0.000
  0.000   0.000   0.000  -0.000  -2.098   0.000  -0.000   2.105   0.000   0.000   0.000   0.000   0.000
 -0.000   0.000   0.000   0.000   0.000   0.000   0.000   0.000   0.004   0.000   0.000   0.000  -0.000
 -0.000  -0.000   0.000   0.000   0.000   0.000   0.000   0.000  -0.000   0.004  -0.000   0.000  -0.000
 -0.000   0.000   0.000   0.000   0.000   0.000   0.000   0.000   0.000   0.000   0.016   0.000   0.000
  0.000  -0.000   0.000   0.000   0.000   0.000   0.000   0.000  -0.000   0.000  -0.000   0.004  -0.000
  0.000  -0.000   0.000   0.000   0.000   0.000   0.000   0.000  -0.000  -0.000   0.000   0.000   0.016


------------------------ aborting loop because EDIFF is reached ----------------------------------------


    CHARGE:  cpu time    0.0266: real time    0.0266
    FORLOC:  cpu time    0.0047: real time    0.0047
    FORNL :  cpu time    0.0334: real time    0.0334
    STRESS:  cpu time    0.1446: real time    0.1446
    FORCOR:  cpu time    0.0478: real time    0.0478
    FORHAR:  cpu time    0.0121: real time    0.0121
    MIXING:  cpu time    0.0040: real time    0.0040
    OFIELD:  cpu time    0.0000: real time    0.0000

  FORCE on cell =-STRESS in cart. coord.  units (eV):
  Direction    XX          YY          ZZ          XY          YZ          ZX
  --------------------------------------------------------------------------------------
  Alpha Z    50.22068    50.22068    50.22068
  Ewald    -447.34672  -447.34672  -447.34672    -0.00000    -0.00000    -0.00061
  Hartree   230.10520   230.10520   230.10520    -0.00000     0.00000    -0.00034
  E(xc)    -133.14308  -133.14310  -133.14320     0.00000     0.00000     0.00006
  Local      -9.39531    -9.39524    -9.39517    -0.00000     0.00000     0.00085
  n-local   -17.88793   -18.02960   -20.53234     1.55265    -0.65467     1.19419
  augment    75.80461    75.80454    75.80448     0.00000     0.00000     0.00012
  Kinetic   253.31295   253.31575   251.07691     2.84298    -1.27234     1.84787
  Fock        0.00000     0.00000     0.00000     0.00000     0.00000     0.00000
  -------------------------------------------------------------------------------------
  Total      -0.00275    -0.00275    -0.00275    -0.00000    -0.00000     0.00000
  in kB      -0.03705    -0.03705    -0.03705    -0.00000    -0.00000     0.00000
  external pressure =       -0.04 kB  Pullay stress =        0.00 kB


 VOLUME and BASIS-vectors are now :
 -----------------------------------------------------------------------------
  energy-cutoff  :      520.00
  volume of cell :      118.80
      direct lattice vectors                 reciprocal lattice vectors
     3.901726192 -3.901726192 -0.000000000     0.128148408 -0.128148408 -0.128148408
    -3.901726192  0.000000000 -3.901726192     0.000000000  0.000000000 -0.256296816
     3.901726192  3.901726192  0.000000000     0.128148408  0.128148408 -0.128148408

  length of vectors
     5.517874097  5.517874097  5.517874097     0.221959554  0.256296816  0.221959554


 FORCES acting on ions
    electron-ion (+dipol)            ewald-force                    non-local-force                 convergence-correction
 -----------------------------------------------------------------------------------------------
   0.525E-03 -.306E-11 0.187E-03   0.380E-03 0.111E-13 -.292E-03   0.847E-21 -.254E-20 -.869E-23   0.135E-07 -.113E-14 0.756E-09
   -.924E-03 0.784E-03 0.930E-03   -.260E-03 0.454E-03 0.227E-03   -.252E-17 0.140E-16 -.104E-16   0.873E-08 -.883E-08 -.864E-08
   -.924E-03 -.784E-03 0.930E-03   -.260E-03 -.454E-03 0.227E-03   -.106E-16 -.176E-16 0.104E-16   0.873E-08 0.883E-08 -.864E-08
   -.999E-04 -.166E-11 0.104E-03   0.139E-03 -.259E-14 -.162E-03   0.318E-21 0.000E+00 0.148E-23   -.285E-09 0.225E-14 0.354E-09
 -----------------------------------------------------------------------------------------------
   -.142E-02 -.645E-10 0.215E-02   -.226E-15 0.177E-15 0.484E-15   -.131E-16 -.361E-17 -.669E-23   0.307E-07 0.264E-13 -.162E-07
 
 
 POSITION                                       TOTAL-FORCE (eV/Angst)
 -----------------------------------------------------------------------------------
      3.90173      0.00000      0.00000         0.000000     -0.000000     -0.000000
      1.95087     -1.95087     -1.95087        -0.000000      0.000000      0.000000
      1.95087      1.95087     -1.95087        -0.000000     -0.000000     -0.000000
      0.00000     -0.00000     -0.00000         0.000000     -0.000000     -0.000000
 -----------------------------------------------------------------------------------
    total drift:                               -0.001423     -0.000000      0.002149


--------------------------------------------------------------------------------------------------------



  FREE ENERGIE OF THE ION-ELECTRON SYSTEM (eV)
  ---------------------------------------------------
  free  energy   TOTEN  =        -9.55842924 eV

  energy  without entropy=       -9.55842924  energy(sigma->0) =       -9.55842924
 
 d Force = 0.0000000E+00[ 0.000E+00, 0.000E+00]  d Energy = 0.1167720E-05-0.117E-05
 d Force = 0.0000000E+00[ 0.000E+00, 0.000E+00]  d Ewald  =-0.1169631E+00 0.117E+00


--------------------------------------------------------------------------------------------------------


    POTLOK:  cpu time    0.0462: real time    0.0463


--------------------------------------------------------------------------------------------------------




--------------------------------------------------------------------------------------------------------


  
 reached required accuracy - stopping structural energy minimisation
     LOOP+:  cpu time    1.4172: real time    1.4268
    4ORBIT:  cpu time    0.0000: real time    0.0000

 total amount of memory used by VASP MPI-rank0    46311. kBytes
=======================================================================

   base      :      30000. kBytes
   nonl-proj :       4127. kBytes
   fftplans  :       2889. kBytes
   grid      :       5395. kBytes
   one-center:          8. kBytes
   wavefun   :       3892. kBytes
 
  
  
 General timing and accounting informations for this job:
 ========================================================
  
                  Total CPU time used (sec):       24.432
                            User time (sec):       23.789
                          System time (sec):        0.643
                         Elapsed time (sec):       24.709
  
                   Maximum memory used (kb):       99388.
                   Average memory used (kb):           0.
  
                          Minor page faults:        41622
                          Major page faults:            0
                 Voluntary context switches:          801
