unknown system                          
           1
     3.846411   -3.846411    0.000000
    -3.846411    0.000000   -3.846411
     3.846411    3.846411    0.000000
   K    Na   Sb
   1   2   1
Direct configuration=     1
   0.49999987  0.00000000  0.49999987
   0.75000175  0.50000117  0.25000058
   0.25000058  0.50000117  0.75000175
   0.00000000  0.00000000  0.00000000
unknown system                          
           1
     3.877420   -3.877420   -0.000000
    -3.877420    0.000000   -3.877420
     3.877420    3.877420    0.000000
   K    Na   Sb
   1   2   1
Direct configuration=     2
   0.49999987  0.00000000  0.49999987
   0.75000175  0.50000117  0.25000058
   0.25000058  0.50000117  0.75000175
   0.00000000  0.00000000  0.00000000
unknown system                          
           1
     3.891381   -3.891381   -0.000000
    -3.891381    0.000000   -3.891381
     3.891381    3.891381    0.000000
   K    Na   Sb
   1   2   1
Direct configuration=     3
   0.49999987  0.00000000  0.49999987
   0.75000175  0.50000117  0.25000058
   0.25000058  0.50000117  0.75000175
   0.00000000 -0.00000000  0.00000000
unknown system                          
           1
     3.919302   -3.919302   -0.000000
    -3.919302    0.000000   -3.919302
     3.919302    3.919302    0.000000
   K    Na   Sb
   1   2   1
Direct configuration=     4
   0.49999987  0.00000000  0.49999987
   0.75000175  0.50000117  0.25000058
   0.25000058  0.50000117  0.75000175
   0.00000000 -0.00000000  0.00000000
unknown system                          
           1
     3.898916   -3.898916   -0.000000
    -3.898916    0.000000   -3.898916
     3.898916    3.898916    0.000000
   K    Na   Sb
   1   2   1
Direct configuration=     5
   0.49999987  0.00000000  0.49999987
   0.75000175  0.50000117  0.25000058
   0.25000058  0.50000117  0.75000175
   0.00000000 -0.00000000  0.00000000
unknown system                          
           1
     3.909109   -3.909109   -0.000000
    -3.909109    0.000000   -3.909109
     3.909109    3.909109    0.000000
   K    Na   Sb
   1   2   1
Direct configuration=     6
   0.49999987  0.00000000  0.49999987
   0.75000175  0.50000117  0.25000058
   0.25000058  0.50000117  0.75000175
   0.00000000 -0.00000000  0.00000000
unknown system                          
           1
     3.903229   -3.903229   -0.000000
    -3.903229    0.000000   -3.903229
     3.903229    3.903229    0.000000
   K    Na   Sb
   1   2   1
Direct configuration=     7
   0.49999987  0.00000000  0.49999987
   0.75000175  0.50000117  0.25000058
   0.25000058  0.50000117  0.75000175
   0.00000000 -0.00000000  0.00000000
unknown system                          
           1
     3.902924   -3.902924   -0.000000
    -3.902924    0.000000   -3.902924
     3.902924    3.902924    0.000000
   K    Na   Sb
   1   2   1
Direct configuration=     8
   0.49999987  0.00000000  0.49999987
   0.75000175  0.50000117  0.25000058
   0.25000058  0.50000117  0.75000175
   0.00000000 -0.00000000  0.00000000
unknown system                          
           1
     3.900920   -3.900920   -0.000000
    -3.900920    0.000000   -3.900920
     3.900920    3.900920    0.000000
   K    Na   Sb
   1   2   1
Direct configuration=     9
   0.49999987  0.00000000  0.49999987
   0.75000175  0.50000117  0.25000058
   0.25000058  0.50000117  0.75000175
   0.00000000 -0.00000000  0.00000000
unknown system                          
           1
     3.901984   -3.901984   -0.000000
    -3.901984    0.000000   -3.901984
     3.901984    3.901984    0.000000
   K    Na   Sb
   1   2   1
Direct configuration=    10
   0.49999987  0.00000000  0.49999987
   0.75000175  0.50000117  0.25000058
   0.25000058  0.50000117  0.75000175
   0.00000000 -0.00000000  0.00000000
unknown system                          
           1
     3.901386   -3.901386   -0.000000
    -3.901386    0.000000   -3.901386
     3.901386    3.901386    0.000000
   K    Na   Sb
   1   2   1
Direct configuration=    11
   0.49999987  0.00000000  0.49999987
   0.75000175  0.50000117  0.25000058
   0.25000058  0.50000117  0.75000175
   0.00000000 -0.00000000  0.00000000
unknown system                          
           1
     3.901726   -3.901726   -0.000000
    -3.901726    0.000000   -3.901726
     3.901726    3.901726    0.000000
   K    Na   Sb
   1   2   1
Direct configuration=    12
   0.49999987  0.00000000  0.49999987
   0.75000175  0.50000117  0.25000058
   0.25000058  0.50000117  0.75000175
   0.00000000 -0.00000000  0.00000000
