   4   4   0   0
  0.4593017E+02  0.6381034E-09  0.6381034E-09  0.6381034E-09  0.5000000E-15
  1.000000000000000E-004
  CAR 
 unknown system                          
      6.78221729    -27.39308206  301      2.11871290      1.00000000
    -27.393  0.0000E+00  0.0000E+00
    -27.279  0.0000E+00  0.0000E+00
    -27.165  0.0000E+00  0.0000E+00
    -27.051  0.0000E+00  0.0000E+00
    -26.937  0.0000E+00  0.0000E+00
    -26.823  0.0000E+00  0.0000E+00
    -26.710  0.0000E+00  0.0000E+00
    -26.596  0.0000E+00  0.0000E+00
    -26.482  0.0000E+00  0.0000E+00
    -26.368  0.0000E+00  0.0000E+00
    -26.254  0.0000E+00  0.0000E+00
    -26.140  0.0000E+00  0.0000E+00
    -26.026  0.5728E-08  0.6525E-09
    -25.912  0.3525E-02  0.4016E-03
    -25.798  0.2808E+00  0.3239E-01
    -25.684  0.6679E-01  0.4000E-01
    -25.570  0.7917E-05  0.4000E-01
    -25.456  0.5713E-13  0.4000E-01
    -25.343  0.0000E+00  0.4000E-01
    -25.229  0.0000E+00  0.4000E-01
    -25.115  0.0000E+00  0.4000E-01
    -25.001  0.0000E+00  0.4000E-01
    -24.887  0.0000E+00  0.4000E-01
    -24.773  0.0000E+00  0.4000E-01
    -24.659  0.0000E+00  0.4000E-01
    -24.545  0.0000E+00  0.4000E-01
    -24.431  0.0000E+00  0.4000E-01
    -24.317  0.0000E+00  0.4000E-01
    -24.203  0.0000E+00  0.4000E-01
    -24.089  0.0000E+00  0.4000E-01
    -23.976  0.0000E+00  0.4000E-01
    -23.862  0.0000E+00  0.4000E-01
    -23.748  0.0000E+00  0.4000E-01
    -23.634  0.0000E+00  0.4000E-01
    -23.520  0.0000E+00  0.4000E-01
    -23.406  0.0000E+00  0.4000E-01
    -23.292  0.0000E+00  0.4000E-01
    -23.178  0.0000E+00  0.4000E-01
    -23.064  0.0000E+00  0.4000E-01
    -22.950  0.0000E+00  0.4000E-01
    -22.836  0.0000E+00  0.4000E-01
    -22.722  0.0000E+00  0.4000E-01
    -22.609  0.0000E+00  0.4000E-01
    -22.495  0.0000E+00  0.4000E-01
    -22.381  0.0000E+00  0.4000E-01
    -22.267  0.0000E+00  0.4000E-01
    -22.153  0.0000E+00  0.4000E-01
    -22.039  0.0000E+00  0.4000E-01
    -21.925  0.0000E+00  0.4000E-01
    -21.811  0.0000E+00  0.4000E-01
    -21.697  0.0000E+00  0.4000E-01
    -21.583  0.6865E-13  0.4000E-01
    -21.469  0.7075E-05  0.4000E-01
    -21.355  0.4133E-01  0.4471E-01
    -21.242  0.1331E+00  0.5988E-01
    -21.128  0.1088E-02  0.6000E-01
    -21.014  0.9229E-09  0.6000E-01
    -20.900  0.0000E+00  0.6000E-01
    -20.786  0.0000E+00  0.6000E-01
    -20.672  0.0000E+00  0.6000E-01
    -20.558  0.0000E+00  0.6000E-01
    -20.444  0.0000E+00  0.6000E-01
    -20.330  0.0000E+00  0.6000E-01
    -20.216  0.0000E+00  0.6000E-01
    -20.102  0.0000E+00  0.6000E-01
    -19.988  0.0000E+00  0.6000E-01
    -19.875  0.0000E+00  0.6000E-01
    -19.761  0.0000E+00  0.6000E-01
    -19.647  0.0000E+00  0.6000E-01
    -19.533  0.0000E+00  0.6000E-01
    -19.419  0.0000E+00  0.6000E-01
    -19.305  0.0000E+00  0.6000E-01
    -19.191  0.0000E+00  0.6000E-01
    -19.077  0.0000E+00  0.6000E-01
    -18.963  0.0000E+00  0.6000E-01
    -18.849  0.0000E+00  0.6000E-01
    -18.735  0.0000E+00  0.6000E-01
    -18.621  0.0000E+00  0.6000E-01
    -18.508  0.0000E+00  0.6000E-01
    -18.394  0.0000E+00  0.6000E-01
    -18.280  0.0000E+00  0.6000E-01
    -18.166  0.0000E+00  0.6000E-01
    -18.052  0.0000E+00  0.6000E-01
    -17.938  0.0000E+00  0.6000E-01
    -17.824  0.0000E+00  0.6000E-01
    -17.710  0.0000E+00  0.6000E-01
    -17.596  0.0000E+00  0.6000E-01
    -17.482  0.0000E+00  0.6000E-01
    -17.368  0.0000E+00  0.6000E-01
    -17.254  0.0000E+00  0.6000E-01
    -17.140  0.0000E+00  0.6000E-01
    -17.027  0.0000E+00  0.6000E-01
    -16.913  0.0000E+00  0.6000E-01
    -16.799  0.0000E+00  0.6000E-01
    -16.685  0.0000E+00  0.6000E-01
    -16.571  0.0000E+00  0.6000E-01
    -16.457  0.0000E+00  0.6000E-01
    -16.343  0.0000E+00  0.6000E-01
    -16.229  0.0000E+00  0.6000E-01
    -16.115  0.0000E+00  0.6000E-01
    -16.001  0.0000E+00  0.6000E-01
    -15.887  0.0000E+00  0.6000E-01
    -15.773  0.0000E+00  0.6000E-01
    -15.660  0.0000E+00  0.6000E-01
    -15.546  0.0000E+00  0.6000E-01
    -15.432  0.0000E+00  0.6000E-01
    -15.318  0.0000E+00  0.6000E-01
    -15.204  0.0000E+00  0.6000E-01
    -15.090  0.0000E+00  0.6000E-01
    -14.976  0.0000E+00  0.6000E-01
    -14.862  0.0000E+00  0.6000E-01
    -14.748  0.0000E+00  0.6000E-01
    -14.634  0.0000E+00  0.6000E-01
    -14.520  0.0000E+00  0.6000E-01
    -14.406  0.0000E+00  0.6000E-01
    -14.293  0.0000E+00  0.6000E-01
    -14.179  0.0000E+00  0.6000E-01
    -14.065  0.0000E+00  0.6000E-01
    -13.951  0.0000E+00  0.6000E-01
    -13.837  0.0000E+00  0.6000E-01
    -13.723  0.0000E+00  0.6000E-01
    -13.609  0.0000E+00  0.6000E-01
    -13.495  0.0000E+00  0.6000E-01
    -13.381  0.0000E+00  0.6000E-01
    -13.267  0.0000E+00  0.6000E-01
    -13.153  0.0000E+00  0.6000E-01
    -13.039  0.0000E+00  0.6000E-01
    -12.926  0.0000E+00  0.6000E-01
    -12.812  0.0000E+00  0.6000E-01
    -12.698  0.0000E+00  0.6000E-01
    -12.584  0.0000E+00  0.6000E-01
    -12.470  0.0000E+00  0.6000E-01
    -12.356  0.0000E+00  0.6000E-01
    -12.242  0.0000E+00  0.6000E-01
    -12.128  0.0000E+00  0.6000E-01
    -12.014  0.0000E+00  0.6000E-01
    -11.900  0.0000E+00  0.6000E-01
    -11.786  0.0000E+00  0.6000E-01
    -11.672  0.0000E+00  0.6000E-01
    -11.559  0.0000E+00  0.6000E-01
    -11.445  0.0000E+00  0.6000E-01
    -11.331  0.0000E+00  0.6000E-01
    -11.217  0.0000E+00  0.6000E-01
    -11.103  0.0000E+00  0.6000E-01
    -10.989  0.0000E+00  0.6000E-01
    -10.875  0.0000E+00  0.6000E-01
    -10.761  0.0000E+00  0.6000E-01
    -10.647  0.0000E+00  0.6000E-01
    -10.533  0.0000E+00  0.6000E-01
    -10.419  0.4568E-17  0.6000E-01
    -10.305  0.9193E-08  0.6000E-01
    -10.192  0.1589E-02  0.6018E-01
    -10.078  0.1667E+00  0.7917E-01
     -9.964  0.4722E+00  0.1330E+00
     -9.850  0.3930E+00  0.1777E+00
     -9.736  0.1995E-01  0.1800E+00
     -9.622  0.8903E-06  0.1800E+00
     -9.508  0.3642E-14  0.1800E+00
     -9.394  0.0000E+00  0.1800E+00
     -9.280  0.0000E+00  0.1800E+00
     -9.166  0.0000E+00  0.1800E+00
     -9.052  0.0000E+00  0.1800E+00
     -8.938  0.0000E+00  0.1800E+00
     -8.825  0.0000E+00  0.1800E+00
     -8.711  0.0000E+00  0.1800E+00
     -8.597  0.0000E+00  0.1800E+00
     -8.483  0.1656E-17  0.1800E+00
     -8.369  0.4984E-08  0.1800E+00
     -8.255  0.1227E-02  0.1801E+00
     -8.141  0.1962E+00  0.2025E+00
     -8.027  0.3250E+00  0.2395E+00
     -7.913  0.4286E-02  0.2400E+00
     -7.799  0.1727E-07  0.2400E+00
     -7.685  0.0000E+00  0.2400E+00
     -7.571  0.0000E+00  0.2400E+00
     -7.457  0.0000E+00  0.2400E+00
     -7.344  0.0000E+00  0.2400E+00
     -7.230  0.0000E+00  0.2400E+00
     -7.116  0.0000E+00  0.2400E+00
     -7.002  0.0000E+00  0.2400E+00
     -6.888  0.0000E+00  0.2400E+00
     -6.774  0.0000E+00  0.2400E+00
     -6.660  0.0000E+00  0.2400E+00
     -6.546  0.0000E+00  0.2400E+00
     -6.432  0.0000E+00  0.2400E+00
     -6.318  0.0000E+00  0.2400E+00
     -6.204  0.0000E+00  0.2400E+00
     -6.090  0.0000E+00  0.2400E+00
     -5.977  0.0000E+00  0.2400E+00
     -5.863  0.0000E+00  0.2400E+00
     -5.749  0.0000E+00  0.2400E+00
     -5.635  0.0000E+00  0.2400E+00
     -5.521  0.4761E-10  0.2400E+00
     -5.407  0.2173E-04  0.2400E+00
     -5.293  0.6890E-02  0.2408E+00
     -5.179  0.1100E+00  0.2533E+00
     -5.065  0.5865E-01  0.2600E+00
     -4.951  0.4920E-04  0.2600E+00
     -4.837  0.3437E-11  0.2600E+00
     -4.723  0.0000E+00  0.2600E+00
     -4.610  0.0000E+00  0.2600E+00
     -4.496  0.0000E+00  0.2600E+00
     -4.382  0.0000E+00  0.2600E+00
     -4.268  0.0000E+00  0.2600E+00
     -4.154  0.0000E+00  0.2600E+00
     -4.040  0.0000E+00  0.2600E+00
     -3.926  0.0000E+00  0.2600E+00
     -3.812  0.0000E+00  0.2600E+00
     -3.698  0.0000E+00  0.2600E+00
     -3.584  0.0000E+00  0.2600E+00
     -3.470  0.0000E+00  0.2600E+00
     -3.356  0.0000E+00  0.2600E+00
     -3.243  0.0000E+00  0.2600E+00
     -3.129  0.0000E+00  0.2600E+00
     -3.015  0.0000E+00  0.2600E+00
     -2.901  0.0000E+00  0.2600E+00
     -2.787  0.0000E+00  0.2600E+00
     -2.673  0.0000E+00  0.2600E+00
     -2.559  0.0000E+00  0.2600E+00
     -2.445  0.0000E+00  0.2600E+00
     -2.331  0.0000E+00  0.2600E+00
     -2.217  0.0000E+00  0.2600E+00
     -2.103  0.0000E+00  0.2600E+00
     -1.989  0.0000E+00  0.2600E+00
     -1.876  0.0000E+00  0.2600E+00
     -1.762  0.0000E+00  0.2600E+00
     -1.648  0.0000E+00  0.2600E+00
     -1.534  0.0000E+00  0.2600E+00
     -1.420  0.0000E+00  0.2600E+00
     -1.306  0.0000E+00  0.2600E+00
     -1.192  0.0000E+00  0.2600E+00
     -1.078  0.0000E+00  0.2600E+00
     -0.964  0.0000E+00  0.2600E+00
     -0.850  0.0000E+00  0.2600E+00
     -0.736  0.0000E+00  0.2600E+00
     -0.622  0.0000E+00  0.2600E+00
     -0.509  0.0000E+00  0.2600E+00
     -0.395  0.0000E+00  0.2600E+00
     -0.281  0.0000E+00  0.2600E+00
     -0.167  0.0000E+00  0.2600E+00
     -0.053  0.0000E+00  0.2600E+00
      0.061  0.0000E+00  0.2600E+00
      0.175  0.0000E+00  0.2600E+00
      0.289  0.0000E+00  0.2600E+00
      0.403  0.0000E+00  0.2600E+00
      0.517  0.0000E+00  0.2600E+00
      0.631  0.1270E-09  0.2600E+00
      0.745  0.3225E-04  0.2600E+00
      0.858  0.5488E-02  0.2606E+00
      0.972  0.5812E-01  0.2672E+00
      1.086  0.6331E-01  0.2745E+00
      1.200  0.3781E-01  0.2788E+00
      1.314  0.8498E-02  0.2797E+00
      1.428  0.4081E-01  0.2844E+00
      1.542  0.9013E-01  0.2947E+00
      1.656  0.1227E+00  0.3086E+00
      1.770  0.8329E-01  0.3181E+00
      1.884  0.1639E-01  0.3200E+00
      1.998  0.1467E-03  0.3200E+00
      2.112  0.6332E-09  0.3200E+00
      2.226  0.3154E-14  0.3200E+00
      2.339  0.8094E-07  0.3200E+00
      2.453  0.1343E-03  0.3200E+00
      2.567  0.2079E-03  0.3200E+00
      2.681  0.5483E-06  0.3200E+00
      2.795  0.2540E-08  0.3200E+00
      2.909  0.1893E-03  0.3201E+00
      3.023  0.4125E-02  0.3205E+00
      3.137  0.1016E-02  0.3206E+00
      3.251  0.5473E-03  0.3207E+00
      3.365  0.7505E-02  0.3216E+00
      3.479  0.8845E-02  0.3226E+00
      3.593  0.1179E-01  0.3239E+00
      3.706  0.1940E-01  0.3261E+00
      3.820  0.1950E-01  0.3283E+00
      3.934  0.5454E-01  0.3346E+00
      4.048  0.5780E-01  0.3411E+00
      4.162  0.5487E-01  0.3474E+00
      4.276  0.5189E-01  0.3533E+00
      4.390  0.6632E-01  0.3609E+00
      4.504  0.3241E-01  0.3646E+00
      4.618  0.4357E-01  0.3695E+00
      4.732  0.5148E-01  0.3754E+00
      4.846  0.7632E-01  0.3841E+00
      4.960  0.8475E-01  0.3937E+00
      5.073  0.4139E-01  0.3984E+00
      5.187  0.1181E-01  0.3998E+00
      5.301  0.1826E-02  0.4000E+00
      5.415  0.2088E-04  0.4000E+00
      5.529  0.6922E-10  0.4000E+00
      5.643  0.0000E+00  0.4000E+00
      5.757  0.0000E+00  0.4000E+00
      5.871  0.0000E+00  0.4000E+00
      5.985  0.0000E+00  0.4000E+00
      6.099  0.0000E+00  0.4000E+00
      6.213  0.0000E+00  0.4000E+00
      6.327  0.0000E+00  0.4000E+00
      6.440  0.0000E+00  0.4000E+00
      6.554  0.0000E+00  0.4000E+00
      6.668  0.0000E+00  0.4000E+00
      6.782  0.0000E+00  0.4000E+00
