    4    4  100    1
  0.4593017E+02  0.6381033E-09  0.6381033E-09  0.6381033E-09  0.5000000E-15
  1.000000000000000E-004
  CAR 
 unknown system                          
     32     29     20
 
  0.0000000E+00  0.0000000E+00  0.0000000E+00  0.1953125E-02
    1      -25.839659   1.000000
    2      -25.820104   1.000000
    3      -21.327905   1.000000
    4      -10.028189   1.000000
    5      -10.028188   1.000000
    6      -10.028188   1.000000
    7       -9.937247   1.000000
    8       -9.937245   1.000000
    9       -9.937245   1.000000
   10       -8.139256   1.000000
   11       -8.139248   1.000000
   12       -8.139248   1.000000
   13       -5.338571   1.000000
   14        1.725668   1.000000
   15        1.725668   1.000000
   16        1.725685   1.000000
   17        2.463035   0.000000
   18        3.694031   0.000000
   19        3.694031   0.000000
   20        4.751191   0.000000
 
  0.1250000E+00  0.0000000E+00  0.0000000E+00  0.1562500E-01
    1      -25.838837   1.000000
    2      -25.820795   1.000000
    3      -21.328203   1.000000
    4      -10.035073   1.000000
    5      -10.027002   1.000000
    6      -10.027001   1.000000
    7       -9.941445   1.000000
    8       -9.941443   1.000000
    9       -9.933130   1.000000
   10       -8.144823   1.000000
   11       -8.135336   1.000000
   12       -8.135329   1.000000
   13       -5.310758   1.000000
   14        1.404619   1.000000
   15        1.680291   1.000000
   16        1.680305   1.000000
   17        2.963815   0.000000
   18        3.878403   0.000000
   19        3.878404   0.000000
   20        4.590469   0.000000
 
  0.2500000E+00  0.0000000E+00  0.0000000E+00  0.1562500E-01
    1      -25.836546   1.000000
    2      -25.822776   1.000000
    3      -21.328921   1.000000
    4      -10.040762   1.000000
    5      -10.023177   1.000000
    6      -10.023175   1.000000
    7       -9.952531   1.000000
    8       -9.952530   1.000000
    9       -9.936029   1.000000
   10       -8.153279   1.000000
   11       -8.125890   1.000000
   12       -8.125883   1.000000
   13       -5.249893   1.000000
   14        1.066804   1.000000
   15        1.593163   1.000000
   16        1.593176   1.000000
   17        3.710725   0.000000
   18        4.351224   0.000000
   19        4.351226   0.000000
   20        4.427869   0.000000
 
  0.3750000E+00  0.0000000E+00  0.0000000E+00  0.1562500E-01
    1      -25.833223   1.000000
    2      -25.825790   1.000000
    3      -21.329652   1.000000
    4      -10.033301   1.000000
    5      -10.017023   1.000000
    6      -10.017019   1.000000
    7       -9.965922   1.000000
    8       -9.965922   1.000000
    9       -9.954344   1.000000
   10       -8.155740   1.000000
   11       -8.116475   1.000000
   12       -8.116468   1.000000
   13       -5.196770   1.000000
   14        0.877604   1.000000
   15        1.527451   1.000000
   16        1.527464   1.000000
   17        4.105550   0.000000
   18        4.778822   0.000000
   19        4.778830   0.000000
   20        4.849208   0.000000
 
  0.5000000E+00  0.0000000E+00  0.0000000E+00  0.7812500E-02
    1      -25.829527   1.000000
    2      -25.829358   1.000000
    3      -21.329947   1.000000
    4      -10.023947   1.000000
    5      -10.013028   1.000000
    6      -10.013024   1.000000
    7       -9.972897   1.000000
    8       -9.972897   1.000000
    9       -9.968728   1.000000
   10       -8.155296   1.000000
   11       -8.112585   1.000000
   12       -8.112578   1.000000
   13       -5.176696   1.000000
   14        0.814995   1.000000
   15        1.504733   1.000000
   16        1.504746   1.000000
   17        4.406744   0.000000
   18        4.790997   0.000000
   19        4.835062   0.000000
   20        4.835067   0.000000
 
  0.1250000E+00  0.1250000E+00  0.0000000E+00  0.1171875E-01
    1      -25.838600   1.000000
    2      -25.820987   1.000000
    3      -21.328296   1.000000
    4      -10.042581   1.000000
    5      -10.042579   1.000000
    6      -10.006386   1.000000
    7       -9.958087   1.000000
    8       -9.928934   1.000000
    9       -9.928932   1.000000
   10       -8.152589   1.000000
   11       -8.131163   1.000000
   12       -8.131158   1.000000
   13       -5.302710   1.000000
   14        1.266979   1.000000
   15        1.741200   1.000000
   16        1.741211   1.000000
   17        2.989720   0.000000
   18        3.798005   0.000000
   19        4.101678   0.000000
   20        4.442004   0.000000
 
  0.2500000E+00  0.1250000E+00  0.0000000E+00  0.4687500E-01
    1      -25.836904   1.000000
    2      -25.822435   1.000000
    3      -21.328879   1.000000
    4      -10.054023   1.000000
    5      -10.051824   1.000000
    6       -9.988133   1.000000
    7       -9.979239   1.000000
    8       -9.926883   1.000000
    9       -9.924712   1.000000
   10       -8.161535   1.000000
   11       -8.123952   1.000000
   12       -8.121664   1.000000
   13       -5.256571   1.000000
   14        1.037194   1.000000
   15        1.659338   1.000000
   16        1.709488   1.000000
   17        3.515025   0.000000
   18        4.071855   0.000000
   19        4.189860   0.000000
   20        4.588622   0.000000
 
  0.3750000E+00  0.1250000E+00  0.0000000E+00  0.4687500E-01
    1      -25.834085   1.000000
    2      -25.824943   1.000000
    3      -21.329607   1.000000
    4      -10.055353   1.000000
    5      -10.051561   1.000000
    6      -10.008400   1.000000
    7       -9.964048   1.000000
    8       -9.935374   1.000000
    9       -9.934224   1.000000
   10       -8.160069   1.000000
   11       -8.118853   1.000000
   12       -8.112413   1.000000
   13       -5.206678   1.000000
   14        0.924704   1.000000
   15        1.525936   1.000000
   16        1.627198   1.000000
   17        3.934842   0.000000
   18        4.412911   0.000000
   19        4.559446   0.000000
   20        4.848044   0.000000
 
  0.5000000E+00  0.1250000E+00  0.0000000E+00  0.4687500E-01
    1      -25.830653   1.000000
    2      -25.828185   1.000000
    3      -21.330052   1.000000
    4      -10.055538   1.000000
    5      -10.040307   1.000000
    6      -10.018523   1.000000
    7       -9.961071   1.000000
    8       -9.948351   1.000000
    9       -9.941223   1.000000
   10       -8.152604   1.000000
   11       -8.117380   1.000000
   12       -8.108787   1.000000
   13       -5.179599   1.000000
   14        0.891294   1.000000
   15        1.464358   1.000000
   16        1.548930   1.000000
   17        4.194973   0.000000
   18        4.673142   0.000000
   19        4.808933   0.000000
   20        4.955222   0.000000
 
 -0.3750000E+00  0.1250000E+00  0.0000000E+00  0.4687500E-01
    1      -25.831726   1.000000
    2      -25.827155   1.000000
    3      -21.329949   1.000000
    4      -10.064131   1.000000
    5      -10.019502   1.000000
    6      -10.011811   1.000000
    7       -9.975828   1.000000
    8       -9.966144   1.000000
    9       -9.924433   1.000000
   10       -8.150940   1.000000
   11       -8.117465   1.000000
   12       -8.112899   1.000000
   13       -5.184979   1.000000
   14        0.903841   1.000000
   15        1.503701   1.000000
   16        1.514721   1.000000
   17        4.179838   0.000000
   18        4.561614   0.000000
   19        4.781425   0.000000
   20        4.886232   0.000000
 
 -0.2500000E+00  0.1250000E+00  0.0000000E+00  0.4687500E-01
    1      -25.835036   1.000000
    2      -25.824095   1.000000
    3      -21.329361   1.000000
    4      -10.064524   1.000000
    5      -10.022359   1.000000
    6       -9.996918   1.000000
    7       -9.981560   1.000000
    8       -9.960251   1.000000
    9       -9.916145   1.000000
   10       -8.154458   1.000000
   11       -8.122381   1.000000
   12       -8.119496   1.000000
   13       -5.221230   1.000000
   14        0.976007   1.000000
   15        1.510723   1.000000
   16        1.641710   1.000000
   17        3.869318   0.000000
   18        4.312410   0.000000
   19        4.545736   0.000000
   20        4.728344   0.000000
 
 -0.1250000E+00  0.1250000E+00  0.0000000E+00  0.2343750E-01
    1      -25.837562   1.000000
    2      -25.821878   1.000000
    3      -21.328634   1.000000
    4      -10.051990   1.000000
    5      -10.029659   1.000000
    6      -10.008543   1.000000
    7       -9.962798   1.000000
    8       -9.943432   1.000000
    9       -9.921925   1.000000
   10       -8.152170   1.000000
   11       -8.131690   1.000000
   12       -8.126343   1.000000
   13       -5.273799   1.000000
   14        1.156186   1.000000
   15        1.578306   1.000000
   16        1.732086   1.000000
   17        3.368920   0.000000
   18        4.082447   0.000000
   19        4.274878   0.000000
   20        4.377133   0.000000
 
  0.2500000E+00  0.2500000E+00  0.0000000E+00  0.1171875E-01
    1      -25.836050   1.000000
    2      -25.823123   1.000000
    3      -21.329270   1.000000
    4      -10.073319   1.000000
    5      -10.073317   1.000000
    6      -10.008579   1.000000
    7       -9.953048   1.000000
    8       -9.912332   1.000000
    9       -9.912331   1.000000
   10       -8.178260   1.000000
   11       -8.112243   1.000000
   12       -8.112238   1.000000
   13       -5.235545   1.000000
   14        0.913694   1.000000
   15        1.776210   1.000000
   16        1.776221   1.000000
   17        3.609239   0.000000
   18        3.826716   0.000000
   19        4.108392   0.000000
   20        4.956693   0.000000
 
  0.3750000E+00  0.2500000E+00  0.0000000E+00  0.4687500E-01
    1      -25.834169   1.000000
    2      -25.824750   1.000000
    3      -21.329854   1.000000
    4      -10.084845   1.000000
    5      -10.082581   1.000000
    6      -10.033062   1.000000
    7       -9.926790   1.000000
    8       -9.912493   1.000000
    9       -9.909896   1.000000
   10       -8.180827   1.000000
   11       -8.106101   1.000000
   12       -8.103155   1.000000
   13       -5.205375   1.000000
   14        0.906864   1.000000
   15        1.682939   1.000000
   16        1.747390   1.000000
   17        3.657601   0.000000
   18        4.016249   0.000000
   19        4.450157   0.000000
   20        4.890494   0.000000
 
  0.5000000E+00  0.2500000E+00  0.0000000E+00  0.4687500E-01
    1      -25.831622   1.000000
    2      -25.827108   1.000000
    3      -21.330297   1.000000
    4      -10.094375   1.000000
    5      -10.076666   1.000000
    6      -10.035906   1.000000
    7       -9.934635   1.000000
    8       -9.918555   1.000000
    9       -9.905335   1.000000
   10       -8.165794   1.000000
   11       -8.110577   1.000000
   12       -8.099671   1.000000
   13       -5.184482   1.000000
   14        1.011821   1.000000
   15        1.474096   1.000000
   16        1.658469   1.000000
   17        3.807635   0.000000
   18        4.305316   0.000000
   19        4.804376   0.000000
   20        4.858077   0.000000
 
 -0.3750000E+00  0.2500000E+00  0.0000000E+00  0.4687500E-01
    1      -25.829882   1.000000
    2      -25.828831   1.000000
    3      -21.330334   1.000000
    4      -10.099135   1.000000
    5      -10.055991   1.000000
    6      -10.015671   1.000000
    7       -9.967963   1.000000
    8       -9.936310   1.000000
    9       -9.894494   1.000000
   10       -8.143978   1.000000
   11       -8.124615   1.000000
   12       -8.103814   1.000000
   13       -5.179944   1.000000
   14        1.084391   1.000000
   15        1.376975   1.000000
   16        1.562541   1.000000
   17        4.136300   0.000000
   18        4.245896   0.000000
   19        4.801286   0.000000
   20        4.824393   0.000000
 
 -0.2500000E+00  0.2500000E+00  0.0000000E+00  0.2343750E-01
    1      -25.832672   1.000000
    2      -25.826206   1.000000
    3      -21.329952   1.000000
    4      -10.088939   1.000000
    5      -10.024639   1.000000
    6      -10.001255   1.000000
    7       -9.986411   1.000000
    8       -9.960731   1.000000
    9       -9.897201   1.000000
   10       -8.144735   1.000000
   11       -8.124202   1.000000
   12       -8.113216   1.000000
   13       -5.193200   1.000000
   14        0.998356   1.000000
   15        1.502665   1.000000
   16        1.528971   1.000000
   17        4.079088   0.000000
   18        4.369812   0.000000
   19        4.519901   0.000000
   20        4.737309   0.000000
 
  0.3750000E+00  0.3750000E+00  0.0000000E+00  0.1171875E-01
    1      -25.833495   1.000000
    2      -25.825252   1.000000
    3      -21.330232   1.000000
    4      -10.101192   1.000000
    5      -10.101190   1.000000
    6      -10.059168   1.000000
    7       -9.898634   1.000000
    8       -9.897850   1.000000
    9       -9.897849   1.000000
   10       -8.195648   1.000000
   11       -8.094152   1.000000
   12       -8.094147   1.000000
   13       -5.196416   1.000000
   14        0.926636   1.000000
   15        1.807566   1.000000
   16        1.807577   1.000000
   17        3.322879   0.000000
   18        3.939263   0.000000
   19        4.619190   0.000000
   20        4.821787   0.000000
 
  0.5000000E+00  0.3750000E+00  0.0000000E+00  0.4687500E-01
    1      -25.832231   1.000000
    2      -25.826386   1.000000
    3      -21.330537   1.000000
    4      -10.112135   1.000000
    5      -10.102793   1.000000
    6      -10.063254   1.000000
    7       -9.904821   1.000000
    8       -9.898921   1.000000
    9       -9.883110   1.000000
   10       -8.189976   1.000000
   11       -8.094117   1.000000
   12       -8.090621   1.000000
   13       -5.187476   1.000000
   14        1.031821   1.000000
   15        1.676638   1.000000
   16        1.771680   1.000000
   17        3.367244   0.000000
   18        3.884005   0.000000
   19        4.925722   0.000000
   20        4.950985   0.000000
 
 -0.3750000E+00  0.3750000E+00  0.0000000E+00  0.2343750E-01
    1      -25.830598   1.000000
    2      -25.828003   1.000000
    3      -21.330579   1.000000
    4      -10.116101   1.000000
    5      -10.086581   1.000000
    6      -10.041947   1.000000
    7       -9.933160   1.000000
    8       -9.912361   1.000000
    9       -9.880906   1.000000
   10       -8.167253   1.000000
   11       -8.107451   1.000000
   12       -8.094600   1.000000
   13       -5.181493   1.000000
   14        1.174791   1.000000
   15        1.394231   1.000000
   16        1.670579   1.000000
   17        3.723153   0.000000
   18        3.991652   0.000000
   19        4.911891   0.000000
   20        5.160185   0.000000
 
  0.5000000E+00  0.5000000E+00  0.0000000E+00  0.5859375E-02
    1      -25.832435   1.000000
    2      -25.826135   1.000000
    3      -21.330645   1.000000
    4      -10.112227   1.000000
    5      -10.112225   1.000000
    6      -10.080118   1.000000
    7       -9.892162   1.000000
    8       -9.892161   1.000000
    9       -9.875768   1.000000
   10       -8.200644   1.000000
   11       -8.086894   1.000000
   12       -8.086888   1.000000
   13       -5.188489   1.000000
   14        1.032256   1.000000
   15        1.819437   1.000000
   16        1.819448   1.000000
   17        3.135569   0.000000
   18        3.727612   0.000000
   19        4.935075   0.000000
   20        5.228795   0.000000
 
  0.3750000E+00  0.2500000E+00  0.1250000E+00  0.4687500E-01
    1      -25.835060   1.000000
    2      -25.824026   1.000000
    3      -21.329464   1.000000
    4      -10.077589   1.000000
    5      -10.049055   1.000000
    6      -10.008648   1.000000
    7       -9.959339   1.000000
    8       -9.939792   1.000000
    9       -9.907502   1.000000
   10       -8.166165   1.000000
   11       -8.115410   1.000000
   12       -8.114563   1.000000
   13       -5.220159   1.000000
   14        0.943383   1.000000
   15        1.600420   1.000000
   16        1.698364   1.000000
   17        3.843356   0.000000
   18        4.000319   0.000000
   19        4.398341   0.000000
   20        4.886998   0.000000
 
  0.5000000E+00  0.2500000E+00  0.1250000E+00  0.9375000E-01
    1      -25.832392   1.000000
    2      -25.826442   1.000000
    3      -21.330051   1.000000
    4      -10.092264   1.000000
    5      -10.038233   1.000000
    6      -10.026975   1.000000
    7       -9.964705   1.000000
    8       -9.934938   1.000000
    9       -9.903701   1.000000
   10       -8.156474   1.000000
   11       -8.118683   1.000000
   12       -8.105644   1.000000
   13       -5.189951   1.000000
   14        0.974613   1.000000
   15        1.504815   1.000000
   16        1.588333   1.000000
   17        4.007226   0.000000
   18        4.299510   0.000000
   19        4.622867   0.000000
   20        4.933944   0.000000
 
 -0.3750000E+00  0.2500000E+00  0.1250000E+00  0.4687500E-01
    1      -25.829408   1.000000
    2      -25.829324   1.000000
    3      -21.330298   1.000000
    4      -10.096983   1.000000
    5      -10.044538   1.000000
    6      -10.011951   1.000000
    7       -9.986122   1.000000
    8       -9.918301   1.000000
    9       -9.911181   1.000000
   10       -8.145320   1.000000
   11       -8.126206   1.000000
   12       -8.101887   1.000000
   13       -5.178933   1.000000
   14        1.024167   1.000000
   15        1.411575   1.000000
   16        1.561914   1.000000
   17        4.238242   0.000000
   18        4.260236   0.000000
   19        4.724441   0.000000
   20        5.055458   0.000000
 
  0.5000000E+00  0.3750000E+00  0.1250000E+00  0.4687500E-01
    1      -25.832554   1.000000
    2      -25.826172   1.000000
    3      -21.330291   1.000000
    4      -10.111928   1.000000
    5      -10.072600   1.000000
    6      -10.049449   1.000000
    7       -9.930714   1.000000
    8       -9.902768   1.000000
    9       -9.894376   1.000000
   10       -8.178191   1.000000
   11       -8.105466   1.000000
   12       -8.095037   1.000000
   13       -5.189992   1.000000
   14        0.989308   1.000000
   15        1.645064   1.000000
   16        1.670475   1.000000
   17        3.641722   0.000000
   18        4.055857   0.000000
   19        4.743646   0.000000
   20        4.834380   0.000000
 
 -0.3750000E+00  0.3750000E+00  0.1250000E+00  0.9375000E-01
    1      -25.830520   1.000000
    2      -25.828101   1.000000
    3      -21.330541   1.000000
    4      -10.126324   1.000000
    5      -10.059469   1.000000
    6      -10.037563   1.000000
    7       -9.963528   1.000000
    8       -9.896099   1.000000
    9       -9.887909   1.000000
   10       -8.159007   1.000000
   11       -8.118903   1.000000
   12       -8.091810   1.000000
   13       -5.181302   1.000000
   14        1.153497   1.000000
   15        1.416209   1.000000
   16        1.620243   1.000000
   17        3.887677   0.000000
   18        4.053245   0.000000
   19        4.673812   0.000000
   20        4.988533   0.000000
 
 -0.2500000E+00  0.3750000E+00  0.1250000E+00  0.4687500E-01
    1      -25.830281   1.000000
    2      -25.828385   1.000000
    3      -21.330437   1.000000
    4      -10.119518   1.000000
    5      -10.049571   1.000000
    6      -10.001585   1.000000
    7      -10.001353   1.000000
    8       -9.910762   1.000000
    9       -9.887616   1.000000
   10       -8.139544   1.000000
   11       -8.134758   1.000000
   12       -8.096465   1.000000
   13       -5.181032   1.000000
   14        1.151982   1.000000
   15        1.373386   1.000000
   16        1.570549   1.000000
   17        4.061022   0.000000
   18        4.345282   0.000000
   19        4.353350   0.000000
   20        5.093342   0.000000
 
 -0.3750000E+00  0.5000000E+00  0.1250000E+00  0.2343750E-01
    1      -25.831514   1.000000
    2      -25.827059   1.000000
    3      -21.330638   1.000000
    4      -10.129552   1.000000
    5      -10.082104   1.000000
    6      -10.062630   1.000000
    7       -9.926775   1.000000
    8       -9.889820   1.000000
    9       -9.878126   1.000000
   10       -8.181806   1.000000
   11       -8.101646   1.000000
   12       -8.087138   1.000000
   13       -5.184430   1.000000
   14        1.103688   1.000000
   15        1.616277   1.000000
   16        1.690563   1.000000
   17        3.510335   0.000000
   18        3.827236   0.000000
   19        4.957418   0.000000
   20        4.977725   0.000000
 
 -0.2500000E+00  0.5000000E+00  0.2500000E+00  0.1171875E-01
    1      -25.829290   1.000000
    2      -25.829284   1.000000
    3      -21.330651   1.000000
    4      -10.140526   1.000000
    5      -10.051498   1.000000
    6      -10.006665   1.000000
    7      -10.006664   1.000000
    8       -9.885098   1.000000
    9       -9.882866   1.000000
   10       -8.139714   1.000000
   11       -8.139708   1.000000
   12       -8.087390   1.000000
   13       -5.180352   1.000000
   14        1.310853   1.000000
   15        1.310868   1.000000
   16        1.579200   1.000000
   17        3.903880   0.000000
   18        4.276014   0.000000
   19        4.276021   0.000000
   20        4.964400   0.000000
