       N       E                     dE             d eps       ncg     rms          rms(c)
DAV:   1     0.228162914321E+03    0.22816E+03   -0.12816E+04  1160   0.133E+03
DAV:   2     0.106862206295E+02   -0.21748E+03   -0.21229E+03  1528   0.240E+02
DAV:   3    -0.899315704928E+01   -0.19679E+02   -0.19637E+02  1784   0.774E+01
DAV:   4    -0.947458442367E+01   -0.48143E+00   -0.48004E+00  1656   0.122E+01
DAV:   5    -0.948653891113E+01   -0.11954E-01   -0.11953E-01  1528   0.161E+00    0.431E+00
DAV:   6    -0.838990591608E+01    0.10966E+01   -0.20686E+00  1364   0.468E+00    0.305E+00
DAV:   7    -0.826435837598E+01    0.12555E+00   -0.12633E+00  1460   0.308E+00    0.169E+00
DAV:   8    -0.828465904372E+01   -0.20301E-01   -0.29499E-01  1296   0.159E+00    0.419E-01
DAV:   9    -0.826624570614E+01    0.18413E-01   -0.11818E-01  1344   0.898E-01    0.295E-01
DAV:  10    -0.826674511321E+01   -0.49941E-03   -0.93084E-03  1472   0.322E-01    0.117E-01
DAV:  11    -0.826706584153E+01   -0.32073E-03   -0.88758E-04  1360   0.171E-01    0.281E-02
DAV:  12    -0.826705826289E+01    0.75786E-05   -0.18878E-04  1116   0.379E-02    0.132E-02
DAV:  13    -0.826705823150E+01    0.31382E-07   -0.46141E-05  1128   0.259E-02
   1 F= -.82670582E+01 E0= -.82670582E+01  d E =-.826706E+01
       N       E                     dE             d eps       ncg     rms          rms(c)
DAV:   1    -0.827108742766E+01   -0.40292E-02   -0.81756E-02  1196   0.158E+00    0.264E-01
DAV:   2    -0.826845333158E+01    0.26341E-02   -0.57569E-03  1400   0.445E-01    0.135E-01
DAV:   3    -0.826751018769E+01    0.94314E-03   -0.32996E-03  1268   0.305E-01    0.228E-02
DAV:   4    -0.826753218313E+01   -0.21995E-04   -0.27052E-04  1840   0.628E-02    0.179E-02
DAV:   5    -0.826753185806E+01    0.32506E-06   -0.78971E-06   832   0.173E-02
   2 F= -.82675319E+01 E0= -.82675319E+01  d E =-.473627E-03
       N       E                     dE             d eps       ncg     rms          rms(c)
DAV:   1    -0.827190246613E+01   -0.43703E-02   -0.95634E-02  1176   0.171E+00    0.287E-01
DAV:   2    -0.826879689782E+01    0.31056E-02   -0.66564E-03  1392   0.480E-01    0.147E-01
DAV:   3    -0.826768994214E+01    0.11070E-02   -0.38849E-03  1268   0.331E-01    0.248E-02
DAV:   4    -0.826771608510E+01   -0.26143E-04   -0.31734E-04  1832   0.687E-02    0.192E-02
DAV:   5    -0.826771600928E+01    0.75813E-07   -0.88266E-06   848   0.183E-02
   3 F= -.82677160E+01 E0= -.82677160E+01  d E =-.657778E-03
