 vasp.5.4.4.18Apr17-6-g9f103f2a35 (build Jun 23 2019 17:35:09) complex          
  
 executed on             LinuxIFC date 2020.01.14  23:21:00
 running on   28 total cores
 distrk:  each k-point on    7 cores,    4 groups
 distr:  one band on NCORES_PER_BAND=   7 cores,    1 groups


--------------------------------------------------------------------------------------------------------


 INCAR:
 POTCAR:    PAW_PBE Cs_sv 08Apr2002               
 POTCAR:    PAW_PBE Rb_sv 06Sep2000               
 POTCAR:    PAW_PBE Sb 06Sep2000                  

 ----------------------------------------------------------------------------- 
|                                                                             |
|           W    W    AA    RRRRR   N    N  II  N    N   GGGG   !!!           |
|           W    W   A  A   R    R  NN   N  II  NN   N  G    G  !!!           |
|           W    W  A    A  R    R  N N  N  II  N N  N  G       !!!           |
|           W WW W  AAAAAA  RRRRR   N  N N  II  N  N N  G  GGG   !            |
|           WW  WW  A    A  R   R   N   NN  II  N   NN  G    G                |
|           W    W  A    A  R    R  N    N  II  N    N   GGGG   !!!           |
|                                                                             |
|      You have enabled k-point parallelism (KPAR>1).                         |
|      This developmental code was originally  written by Paul Kent at ORNL,  |
|      and carefully double checked in Vienna.                                |
|      GW as well as linear response parallelism added by Martijn Marsman     |
|      and Georg Kresse.                                                      |
|      Carefully verify results versus KPAR=1.                                |
|      Report problems to Paul Kent and Vienna.                               |
|                                                                             |
 ----------------------------------------------------------------------------- 

 POTCAR:    PAW_PBE Cs_sv 08Apr2002               
   VRHFIN =Cs: 5s5p6s                                                           
   LEXCH  = PE                                                                  
   EATOM  =   555.6835 eV,   40.8416 Ry                                         
                                                                                
   TITEL  = PAW_PBE Cs_sv 08Apr2002                                             
   LULTRA =        F    use ultrasoft PP ?                                      
   IUNSCR =        1    unscreen: 0-lin 1-nonlin 2-no                           
   RPACOR =    2.200    partial core radius                                     
   POMASS =  132.900; ZVAL   =    9.000    mass and valenz                      
   RCORE  =    2.500    outmost cutoff radius                                   
   RWIGS  =    2.500; RWIGS  =    1.323    wigner-seitz radius (au A)           
   ENMAX  =  220.318; ENMIN  =  165.238 eV                                      
   RCLOC  =    2.207    cutoff for local pot                                    
   LCOR   =        T    correct aug charges                                     
   LPAW   =        T    paw PP                                                  
   EAUG   =  407.933                                                            
   DEXC   =    0.000                                                            
   RMAX   =    2.554    core radius for proj-oper                               
   RAUG   =    1.300    factor for augmentation sphere                          
   RDEP   =    2.590    radius for radial grids                                 
   RDEPT  =    2.117    core radius for aug-charge                              
                                                                                
   Atomic configuration                                                         
   13 entries                                                                   
     n  l   j            E        occ.                                          
     1  0  0.50    -35790.1377   2.0000                                         
     2  0  0.50     -5613.6201   2.0000                                         
     2  1  1.50     -5035.0101   6.0000                                         
     3  0  0.50     -1167.0767   2.0000                                         
     3  1  1.50      -980.9754   6.0000                                         
     3  2  2.50      -708.0703  10.0000                                         
     4  0  0.50      -220.2386   2.0000                                         
     4  1  1.50      -160.7596   6.0000                                         
     4  2  2.50       -74.2354  10.0000                                         
     5  0  0.50       -26.7287   2.0000                                         
     6  0  0.50        -2.0862   1.0000                                         
     5  1  1.50       -13.5159   6.0000                                         
     5  2  2.50        -0.4136   0.0000                                         
   Description                                                                  
     l       E           TYP  RCUT    TYP  RCUT                                 
     0    -26.7287425     23  1.900                                             
     0     -2.0862306     23  1.900                                             
     1    -13.5158719     23  2.500                                             
     1     -2.7211652     23  2.500                                             
     2     -0.4136171     23  2.500                                             
  local pseudopotential read in
  partial core-charges read in
  partial kinetic energy density read in
  atomic valenz-charges read in
  non local Contribution for L=           0  read in
    real space projection operators read in
  non local Contribution for L=           0  read in
    real space projection operators read in
  non local Contribution for L=           1  read in
    real space projection operators read in
  non local Contribution for L=           1  read in
    real space projection operators read in
  non local Contribution for L=           2  read in
    real space projection operators read in
    PAW grid and wavefunctions read in
 
   number of l-projection  operators is LMAX  =           5
   number of lm-projection operators is LMMAX =          13
 
 POTCAR:    PAW_PBE Rb_sv 06Sep2000               
   VRHFIN =Rb: 4s4p5s                                                           
   LEXCH  = PE                                                                  
   EATOM  =   662.5034 eV,   48.6926 Ry                                         
                                                                                
   TITEL  = PAW_PBE Rb_sv 06Sep2000                                             
   LULTRA =        F    use ultrasoft PP ?                                      
   IUNSCR =        1    unscreen: 0-lin 1-nonlin 2-no                           
   RPACOR =    2.200    partial core radius                                     
   POMASS =   85.468; ZVAL   =    9.000    mass and valenz                      
   RCORE  =    2.500    outmost cutoff radius                                   
   RWIGS  =    4.570; RWIGS  =    2.418    wigner-seitz radius (au A)           
   ENMAX  =  220.112; ENMIN  =  165.084 eV                                      
   RCLOC  =    2.200    cutoff for local pot                                    
   LCOR   =        T    correct aug charges                                     
   LPAW   =        T    paw PP                                                  
   EAUG   =  423.861                                                            
   DEXC   =    0.000                                                            
   RMAX   =    2.546    core radius for proj-oper                               
   RAUG   =    1.300    factor for augmentation sphere                          
   RDEP   =    2.541    radius for radial grids                                 
   RDEPT  =    2.044    core radius for aug-charge                              
                                                                                
   Atomic configuration                                                         
   10 entries                                                                   
     n  l   j            E        occ.                                          
     1  0  0.50    -15031.5419   2.0000                                         
     2  0  0.50     -2007.8842   2.0000                                         
     2  1  1.50     -1779.8144   6.0000                                         
     3  0  0.50      -297.9619   2.0000                                         
     3  1  1.50      -224.8335   6.0000                                         
     3  2  2.50      -103.9539  10.0000                                         
     4  0  0.50       -31.8932   2.0000                                         
     5  0  0.50        -2.2327   0.9990                                         
     4  1  1.50       -15.9645   6.0000                                         
     4  2  1.50        -0.0020   0.0010                                         
   Description                                                                  
     l       E           TYP  RCUT    TYP  RCUT                                 
     0    -31.8932387     23  2.500                                             
     0     -2.2326525     23  2.500                                             
     1    -15.9644597     23  2.500                                             
     1    -17.3250423     23  2.500                                             
     2     -0.0020100     23  2.500                                             
  local pseudopotential read in
  partial core-charges read in
  partial kinetic energy density read in
  atomic valenz-charges read in
  non local Contribution for L=           0  read in
    real space projection operators read in
  non local Contribution for L=           0  read in
    real space projection operators read in
  non local Contribution for L=           1  read in
    real space projection operators read in
  non local Contribution for L=           1  read in
    real space projection operators read in
  non local Contribution for L=           2  read in
    real space projection operators read in
    PAW grid and wavefunctions read in
 
   number of l-projection  operators is LMAX  =           5
   number of lm-projection operators is LMMAX =          13
 
 POTCAR:    PAW_PBE Sb 06Sep2000                  
   VRHFIN =Sb: s2p3                                                             
   LEXCH  = PE                                                                  
   EATOM  =   149.9515 eV,   11.0211 Ry                                         
                                                                                
   TITEL  = PAW_PBE Sb 06Sep2000                                                
   LULTRA =        F    use ultrasoft PP ?                                      
   IUNSCR =        1    unscreen: 0-lin 1-nonlin 2-no                           
   RPACOR =    2.200    partial core radius                                     
   POMASS =  121.750; ZVAL   =    5.000    mass and valenz                      
   RCORE  =    2.300    outmost cutoff radius                                   
   RWIGS  =    2.980; RWIGS  =    1.577    wigner-seitz radius (au A)           
   ENMAX  =  172.069; ENMIN  =  129.052 eV                                      
   ICORE  =        3    local potential                                         
   LCOR   =        T    correct aug charges                                     
   LPAW   =        T    paw PP                                                  
   EAUG   =  380.513                                                            
   DEXC   =    0.000                                                            
   RMAX   =    2.346    core radius for proj-oper                               
   RAUG   =    1.300    factor for augmentation sphere                          
   RDEP   =    2.360    radius for radial grids                                 
   RDEPT  =    2.192    core radius for aug-charge                              
                                                                                
   Atomic configuration                                                         
   13 entries                                                                   
     n  l   j            E        occ.                                          
     1  0  0.50    -30298.2797   2.0000                                         
     2  0  0.50     -4610.2252   2.0000                                         
     2  1  1.50     -4138.3407   6.0000                                         
     3  0  0.50      -903.8815   2.0000                                         
     3  1  1.50      -750.1337   6.0000                                         
     3  2  2.50      -515.7092  10.0000                                         
     4  0  0.50      -148.8034   2.0000                                         
     4  1  1.50      -101.7581   6.0000                                         
     4  2  2.50       -33.5048  10.0000                                         
     5  0  0.50       -12.8298   2.0000                                         
     5  1  0.50        -4.8276   3.0000                                         
     5  2  1.50        -4.0817   0.0000                                         
     4  3  2.50        -4.0817   0.0000                                         
   Description                                                                  
     l       E           TYP  RCUT    TYP  RCUT                                 
     0    -12.8297861     23  2.300                                             
     0     13.6058260     23  2.300                                             
     1     -4.8275512     23  2.300                                             
     1     -0.7245443     23  2.300                                             
     2     -4.0817478     23  2.300                                             
     3     -1.3605826     23  2.300                                             
  local pseudopotential read in
  partial core-charges read in
  partial kinetic energy density read in
  atomic valenz-charges read in
  non local Contribution for L=           0  read in
    real space projection operators read in
  non local Contribution for L=           0  read in
    real space projection operators read in
  non local Contribution for L=           1  read in
    real space projection operators read in
  non local Contribution for L=           1  read in
    real space projection operators read in
  non local Contribution for L=           2  read in
    real space projection operators read in
    PAW grid and wavefunctions read in
 
   number of l-projection  operators is LMAX  =           5
   number of lm-projection operators is LMMAX =          13
 
  PAW_PBE Cs_sv 08Apr2002               :
 energy of atom  1       EATOM= -555.6835
 kinetic energy error for atom=    0.0016 (will be added to EATOM!!)
  PAW_PBE Rb_sv 06Sep2000               :
 energy of atom  2       EATOM= -662.5034
 kinetic energy error for atom=    0.0006 (will be added to EATOM!!)
  PAW_PBE Sb 06Sep2000                  :
 energy of atom  3       EATOM= -149.9515
 kinetic energy error for atom=    0.0005 (will be added to EATOM!!)
 
 
 POSCAR: Cs Sb Rb                                
  positions in direct lattice
  No initial velocities read in
 exchange correlation table for  LEXCH =        8
   RHO(1)=    0.500       N(1)  =     2000
   RHO(2)=  100.500       N(2)  =     4000
 


--------------------------------------------------------------------------------------------------------


 ion  position               nearest neighbor table
   1  0.250  0.250  0.250-   2 3.91   3 3.91   3 3.91   3 3.91   2 3.91   2 3.91   2 3.91   3 3.91

   2  0.000  0.000  0.000-   1 3.91   4 3.91   4 3.91   4 3.91   4 3.91   1 3.91   1 3.91   1 3.91
                             3 4.51   3 4.51   3 4.51   3 4.51   3 4.51   3 4.51
   3  0.500  0.500  0.500-   4 3.91   4 3.91   4 3.91   1 3.91   1 3.91   1 3.91   1 3.91   4 3.91
                             2 4.51   2 4.51   2 4.51   2 4.51   2 4.51   2 4.51
   4  0.750  0.750  0.750-   2 3.91   3 3.91   3 3.91   3 3.91   2 3.91   2 3.91   2 3.91   3 3.91

 
  LATTYP: Found a face centered cubic cell.
 ALAT       =     9.0241440000
  
  Lattice vectors:
  
 A1 = (   0.0000000000,   4.5120720000,   4.5120720000)
 A2 = (   4.5120720000,   0.0000000000,   4.5120720000)
 A3 = (   4.5120720000,   4.5120720000,   0.0000000000)


Analysis of symmetry for initial positions (statically):
=====================================================================
 Subroutine PRICEL returns:
 Original cell was already a primitive cell.
 

 Routine SETGRP: Setting up the symmetry group for a 
 face centered cubic supercell.


 Subroutine GETGRP returns: Found 48 space group operations
 (whereof 24 operations were pure point group operations)
 out of a pool of 48 trial point group operations.


The static configuration has the point symmetry T_d .
 The point group associated with its full space group is O_h .


Analysis of symmetry for dynamics (positions and initial velocities):
=====================================================================
 Subroutine PRICEL returns:
 Original cell was already a primitive cell.
 

 Routine SETGRP: Setting up the symmetry group for a 
 face centered cubic supercell.


 Subroutine GETGRP returns: Found 48 space group operations
 (whereof 24 operations were pure point group operations)
 out of a pool of 48 trial point group operations.


The dynamic configuration has the point symmetry T_d .
 The point group associated with its full space group is O_h .


 Subroutine INISYM returns: Found 48 space group operations
 (whereof 24 operations are pure point group operations),
 and found     1 'primitive' translations

 
 
 KPOINTS: KPOINTS                                 

Automatic generation of k-mesh.
Space group operators:
 irot       det(A)        alpha          n_x          n_y          n_z        tau_x        tau_y        tau_z
    1     1.000000     0.000000     1.000000     0.000000     0.000000     0.000000     0.000000     0.000000
    2     1.000000   120.000000    -0.577350    -0.577350    -0.577350     0.000000     0.000000     0.000000
    3     1.000000   120.000000     0.577350     0.577350     0.577350     0.000000     0.000000     0.000000
    4    -1.000000    90.000000     0.000000     0.000000    -1.000000     0.000000     0.000000     0.000000
    5    -1.000000   180.000000     0.000000     0.707107     0.707107     0.000000     0.000000     0.000000
    6    -1.000000    90.000000     0.000000     1.000000     0.000000     0.000000     0.000000     0.000000
    7     1.000000   180.000000     0.000000     0.000000     1.000000     0.000000     0.000000     0.000000
    8     1.000000   120.000000    -0.577350     0.577350     0.577350     0.000000     0.000000     0.000000
    9     1.000000   120.000000    -0.577350     0.577350    -0.577350     0.000000     0.000000     0.000000
   10    -1.000000    90.000000     0.000000     0.000000     1.000000     0.000000     0.000000     0.000000
   11    -1.000000    90.000000    -1.000000     0.000000     0.000000     0.000000     0.000000     0.000000
   12    -1.000000   180.000000     0.707107     0.000000     0.707107     0.000000     0.000000     0.000000
   13     1.000000   120.000000     0.577350    -0.577350     0.577350     0.000000     0.000000     0.000000
   14     1.000000   120.000000    -0.577350    -0.577350     0.577350     0.000000     0.000000     0.000000
   15     1.000000   180.000000     1.000000     0.000000     0.000000     0.000000     0.000000     0.000000
   16    -1.000000    90.000000     0.000000    -1.000000     0.000000     0.000000     0.000000     0.000000
   17    -1.000000   180.000000     0.707107     0.707107     0.000000     0.000000     0.000000     0.000000
   18    -1.000000    90.000000     1.000000     0.000000     0.000000     0.000000     0.000000     0.000000
   19     1.000000   120.000000     0.577350    -0.577350    -0.577350     0.000000     0.000000     0.000000
   20     1.000000   180.000000     0.000000     1.000000     0.000000     0.000000     0.000000     0.000000
   21     1.000000   120.000000     0.577350     0.577350    -0.577350     0.000000     0.000000     0.000000
   22    -1.000000   180.000000     0.000000    -0.707107     0.707107     0.000000     0.000000     0.000000
   23    -1.000000   180.000000     0.707107    -0.707107     0.000000     0.000000     0.000000     0.000000
   24    -1.000000   180.000000     0.707107     0.000000    -0.707107     0.000000     0.000000     0.000000
   25    -1.000000     0.000000     1.000000     0.000000     0.000000     0.499999     0.499999     0.499999
   26    -1.000000   120.000000    -0.577350    -0.577350    -0.577350     0.499999     0.499999     0.499999
   27    -1.000000   120.000000     0.577350     0.577350     0.577350     0.499999     0.499999     0.499999
   28     1.000000    90.000000     0.000000     0.000000    -1.000000     0.500001     0.499999     0.499999
   29     1.000000   180.000000     0.000000     0.707107     0.707107     0.500001     0.499999     0.499999
   30     1.000000    90.000000     0.000000     1.000000     0.000000     0.500001     0.499999     0.499999
   31    -1.000000   180.000000     0.000000     0.000000     1.000000     0.499999     0.499999     0.500001
   32    -1.000000   120.000000    -0.577350     0.577350     0.577350     0.499999     0.499999     0.500001
   33    -1.000000   120.000000    -0.577350     0.577350    -0.577350     0.499999     0.499999     0.500001
   34     1.000000    90.000000     0.000000     0.000000     1.000000     0.499999     0.500001     0.499999
   35     1.000000    90.000000    -1.000000     0.000000     0.000000     0.499999     0.500001     0.499999
   36     1.000000   180.000000     0.707107     0.000000     0.707107     0.499999     0.500001     0.499999
   37    -1.000000   120.000000     0.577350    -0.577350     0.577350     0.500001     0.499999     0.499999
   38    -1.000000   120.000000    -0.577350    -0.577350     0.577350     0.500001     0.499999     0.499999
   39    -1.000000   180.000000     1.000000     0.000000     0.000000     0.500001     0.499999     0.499999
   40     1.000000    90.000000     0.000000    -1.000000     0.000000     0.499999     0.499999     0.500001
   41     1.000000   180.000000     0.707107     0.707107     0.000000     0.499999     0.499999     0.500001
   42     1.000000    90.000000     1.000000     0.000000     0.000000     0.499999     0.499999     0.500001
   43    -1.000000   120.000000     0.577350    -0.577350    -0.577350     0.499999     0.500001     0.499999
   44    -1.000000   180.000000     0.000000     1.000000     0.000000     0.499999     0.500001     0.499999
   45    -1.000000   120.000000     0.577350     0.577350    -0.577350     0.499999     0.500001     0.499999
   46     1.000000   180.000000     0.000000    -0.707107     0.707107     0.499999     0.499999     0.499999
   47     1.000000   180.000000     0.707107    -0.707107     0.000000     0.499999     0.499999     0.499999
   48     1.000000   180.000000     0.707107     0.000000    -0.707107     0.499999     0.499999     0.499999
 
 Subroutine IBZKPT returns following result:
 ===========================================
 
 Found     29 irreducible k-points:
 
 Following reciprocal coordinates:
            Coordinates               Weight
  0.000000  0.000000  0.000000      1.000000
  0.125000  0.000000  0.000000      8.000000
  0.250000  0.000000  0.000000      8.000000
  0.375000  0.000000  0.000000      8.000000
  0.500000  0.000000  0.000000      4.000000
  0.125000  0.125000  0.000000      6.000000
  0.250000  0.125000  0.000000     24.000000
  0.375000  0.125000  0.000000     24.000000
  0.500000  0.125000  0.000000     24.000000
 -0.375000  0.125000  0.000000     24.000000
 -0.250000  0.125000  0.000000     24.000000
 -0.125000  0.125000  0.000000     12.000000
  0.250000  0.250000  0.000000      6.000000
  0.375000  0.250000  0.000000     24.000000
  0.500000  0.250000  0.000000     24.000000
 -0.375000  0.250000  0.000000     24.000000
 -0.250000  0.250000  0.000000     12.000000
  0.375000  0.375000  0.000000      6.000000
  0.500000  0.375000  0.000000     24.000000
 -0.375000  0.375000  0.000000     12.000000
  0.500000  0.500000  0.000000      3.000000
  0.375000  0.250000  0.125000     24.000000
  0.500000  0.250000  0.125000     48.000000
 -0.375000  0.250000  0.125000     24.000000
  0.500000  0.375000  0.125000     24.000000
 -0.375000  0.375000  0.125000     48.000000
 -0.250000  0.375000  0.125000     24.000000
 -0.375000  0.500000  0.125000     12.000000
 -0.250000  0.500000  0.250000      6.000000
 
 Following cartesian coordinates:
            Coordinates               Weight
  0.000000  0.000000  0.000000      1.000000
 -0.013852  0.013852  0.013852      8.000000
 -0.027703  0.027703  0.027703      8.000000
 -0.041555  0.041555  0.041555      8.000000
 -0.055407  0.055407  0.055407      4.000000
  0.000000  0.000000  0.027703      6.000000
 -0.013852  0.013852  0.041555     24.000000
 -0.027703  0.027703  0.055407     24.000000
 -0.041555  0.041555  0.069259     24.000000
  0.055407 -0.055407 -0.027703     24.000000
  0.041555 -0.041555 -0.013852     24.000000
  0.027703 -0.027703  0.000000     12.000000
  0.000000  0.000000  0.055407      6.000000
 -0.013852  0.013852  0.069259     24.000000
 -0.027703  0.027703  0.083110     24.000000
  0.069259 -0.069259 -0.013852     24.000000
  0.055407 -0.055407  0.000000     12.000000
  0.000000  0.000000  0.083110      6.000000
 -0.013852  0.013852  0.096962     24.000000
  0.083110 -0.083110  0.000000     12.000000
  0.000000  0.000000  0.110814      3.000000
 -0.000000  0.027703  0.055407     24.000000
 -0.013852  0.041555  0.069259     48.000000
  0.083110 -0.055407 -0.027703     24.000000
  0.000000  0.027703  0.083110     24.000000
  0.096962 -0.069259 -0.013852     48.000000
  0.083110 -0.055407 -0.000000     24.000000
  0.110814 -0.083110  0.000000     12.000000
  0.110814 -0.055407  0.000000      6.000000
 


--------------------------------------------------------------------------------------------------------




 Dimension of arrays:
   k-points           NKPTS =     29   k-points in BZ     NKDIM =     29   number of bands    NBANDS=     20
   number of dos      NEDOS =    301   number of ions     NIONS =      4
   non local maximal  LDIM  =      5   non local SUM 2l+1 LMDIM =     13
   total plane-waves  NPLWV = 110592
   max r-space proj   IRMAX =      1   max aug-charges    IRDMAX=  33602
   dimension x,y,z NGX =    48 NGY =   48 NGZ =   48
   dimension x,y,z NGXF=    96 NGYF=   96 NGZF=   96
   support grid    NGXF=    96 NGYF=   96 NGZF=   96
   ions per type =               1   2   1
   NGX,Y,Z   is equivalent  to a cutoff of  12.51, 12.51, 12.51 a.u.
   NGXF,Y,Z  is equivalent  to a cutoff of  25.01, 25.01, 25.01 a.u.

 SYSTEM =  unknown system                          
 POSCAR =  Cs Sb Rb                                

 Startparameter for this run:
   NWRITE =      2    write-flag & timer
   PREC   = acc       normal or accurate (medium, high low for compatibility)
   ISTART =      0    job   : 0-new  1-cont  2-samecut
   ICHARG =      2    charge: 1-file 2-atom 10-const
   ISPIN  =      1    spin polarized calculation?
   LNONCOLLINEAR =      F non collinear calculations
   LSORBIT =      F    spin-orbit coupling
   INIWAV =      1    electr: 0-lowe 1-rand  2-diag
   LASPH  =      F    aspherical Exc in radial PAW
   METAGGA=      F    non-selfconsistent MetaGGA calc.

 Electronic Relaxation 1
   ENCUT  =  520.0 eV  38.22 Ry    6.18 a.u.  11.86 11.86 11.86*2*pi/ulx,y,z
   ENINI  =  520.0     initial cutoff
   ENAUG  =  423.9 eV  augmentation charge cutoff
   NELM   =     60;   NELMIN=  5; NELMDL= -5     # of ELM steps 
   EDIFF  = 0.1E-04   stopping-criterion for ELM
   LREAL  =      F    real-space projection
   NLSPLINE    = F    spline interpolate recip. space projectors
   LCOMPAT=      F    compatible to vasp.4.4
   GGA_COMPAT  = T    GGA compatible to vasp.4.4-vasp.4.6
   LMAXPAW     = -100 max onsite density
   LMAXMIX     =    2 max onsite mixed and CHGCAR
   VOSKOWN=      0    Vosko Wilk Nusair interpolation
   ROPT   =    0.00000   0.00000   0.00000
 Ionic relaxation
   EDIFFG = -.1E-02   stopping-criterion for IOM
   NSW    =    100    number of steps for IOM
   NBLOCK =      1;   KBLOCK =    100    inner block; outer block 
   IBRION =      2    ionic relax: 0-MD 1-quasi-New 2-CG
   NFREE  =      1    steps in history (QN), initial steepest desc. (CG)
   ISIF   =      3    stress and relaxation
   IWAVPR =     11    prediction:  0-non 1-charg 2-wave 3-comb
   ISYM   =      2    0-nonsym 1-usesym 2-fastsym
   LCORR  =      T    Harris-Foulkes like correction to forces

   POTIM  = 0.5000    time-step for ionic-motion
   TEIN   =    0.0    initial temperature
   TEBEG  =    0.0;   TEEND  =   0.0 temperature during run
   SMASS  =  -3.00    Nose mass-parameter (am)
   estimated Nose-frequenzy (Omega)   =  0.10E-29 period in steps =****** mass=  -0.931E-27a.u.
   SCALEE = 1.0000    scale energy and forces
   NPACO  =    256;   APACO  = 16.0  distance and # of slots for P.C.
   PSTRESS=    0.0 pullay stress

  Mass of Ions in am
   POMASS = 132.90 85.47121.75
  Ionic Valenz
   ZVAL   =   9.00  9.00  5.00
  Atomic Wigner-Seitz radii
   RWIGS  =  -1.00 -1.00 -1.00
  virtual crystal weights 
   VCA    =   1.00  1.00  1.00
   NELECT =      32.0000    total number of electrons
   NUPDOWN=      -1.0000    fix difference up-down

 DOS related values:
   EMIN   =  10.00;   EMAX   =-10.00  energy-range for DOS
   EFERMI =   0.00
   ISMEAR =     0;   SIGMA  =   0.05  broadening in eV -4-tet -1-fermi 0-gaus

 Electronic relaxation 2 (details)
   IALGO  =     38    algorithm
   LDIAG  =      T    sub-space diagonalisation (order eigenvalues)
   LSUBROT=      F    optimize rotation matrix (better conditioning)
   TURBO    =      0    0=normal 1=particle mesh
   IRESTART =      0    0=no restart 2=restart with 2 vectors
   NREBOOT  =      0    no. of reboots
   NMIN     =      0    reboot dimension
   EREF     =   0.00    reference energy to select bands
   IMIX   =      4    mixing-type and parameters
     AMIX     =   0.40;   BMIX     =  1.00
     AMIX_MAG =   1.60;   BMIX_MAG =  1.00
     AMIN     =   0.10
     WC   =   100.;   INIMIX=   1;  MIXPRE=   1;  MAXMIX= -45

 Intra band minimization:
   WEIMIN = 0.0010     energy-eigenvalue tresh-hold
   EBREAK =  0.13E-06  absolut break condition
   DEPER  =   0.30     relativ break condition  

   TIME   =   0.40     timestep for ELM

  volume/ion in A,a.u.               =      45.93       309.95
  Fermi-wavevector in a.u.,A,eV,Ry     =   0.914265  1.727711 11.372847  0.835881
  Thomas-Fermi vector in A             =   2.038872
 
 Write flags
   LWAVE        =      F    write WAVECAR
   LDOWNSAMPLE  =      F    k-point downsampling of WAVECAR
   LCHARG       =      F    write CHGCAR
   LVTOT        =      F    write LOCPOT, total local potential
   LVHAR        =      F    write LOCPOT, Hartree potential only
   LELF         =      F    write electronic localiz. function (ELF)
   LORBIT       =      0    0 simple, 1 ext, 2 COOP (PROOUT), +10 PAW based schemes


 Dipole corrections
   LMONO  =      F    monopole corrections only (constant potential shift)
   LDIPOL =      F    correct potential (dipole corrections)
   IDIPOL =      0    1-x, 2-y, 3-z, 4-all directions 
   EPSILON=  1.0000000 bulk dielectric constant

 Exchange correlation treatment:
   GGA     =    PE    GGA type
   LEXCH   =     8    internal setting for exchange type
   VOSKOWN=      0    Vosko Wilk Nusair interpolation
   LHFCALC =     F    Hartree Fock is set to
   LHFONE  =     F    Hartree Fock one center treatment
   AEXX    =    0.0000 exact exchange contribution

 Linear response parameters
   LEPSILON=     F    determine dielectric tensor
   LRPA    =     F    only Hartree local field effects (RPA)
   LNABLA  =     F    use nabla operator in PAW spheres
   LVEL    =     F    velocity operator in full k-point grid
   LINTERFAST=   F  fast interpolation
   KINTER  =     0    interpolate to denser k-point grid
   CSHIFT  =0.1000    complex shift for real part using Kramers Kronig
   OMEGAMAX=  -1.0    maximum frequency
   DEG_THRESHOLD= 0.2000000E-02 threshold for treating states as degnerate
   RTIME   =   -0.100 relaxation time in fs
  (WPLASMAI=    0.000 imaginary part of plasma frequency in eV, 0.658/RTIME)
   DFIELD  = 0.0000000 0.0000000 0.0000000 field for delta impulse in time
 
 Orbital magnetization related:
   ORBITALMAG=     F  switch on orbital magnetization
   LCHIMAG   =     F  perturbation theory with respect to B field
   DQ        =  0.001000  dq finite difference perturbation B field
   LLRAUG    =     F  two centre corrections for induced B field



--------------------------------------------------------------------------------------------------------


 conjugate gradient relaxation of ions
 charge density and potential will be updated during run
 non-spin polarized calculation
 Variant of blocked Davidson
 Davidson routine will perform the subspace rotation
 perform sub-space diagonalisation
    after iterative eigenvector-optimisation
 modified Broyden-mixing scheme, WC =      100.0
 initial mixing is a Kerker type mixing with AMIX =  0.4000 and BMIX =      1.0000
 Hartree-type preconditioning will be used
 using additional bands            4
 reciprocal scheme for non local part
 use partial core corrections
 calculate Harris-corrections to forces 
   (improved forces if not selfconsistent)
 use gradient corrections 
 use of overlap-Matrix (Vanderbilt PP)
 Gauss-broadening in eV      SIGMA  =   0.05


--------------------------------------------------------------------------------------------------------


  energy-cutoff  :      520.00
  volume of cell :      183.72
      direct lattice vectors                 reciprocal lattice vectors
     0.000000000  4.512072000  4.512072000    -0.110813835  0.110813835  0.110813835
     4.512072000  0.000000000  4.512072000     0.110813835 -0.110813835  0.110813835
     4.512072000  4.512072000  0.000000000     0.110813835  0.110813835 -0.110813835

  length of vectors
     6.381033417  6.381033417  6.381033417     0.191935192  0.191935192  0.191935192


 
 k-points in units of 2pi/SCALE and weight: KPOINTS                                 
   0.00000000  0.00000000  0.00000000       0.002
  -0.01385173  0.01385173  0.01385173       0.016
  -0.02770346  0.02770346  0.02770346       0.016
  -0.04155519  0.04155519  0.04155519       0.016
  -0.05540692  0.05540692  0.05540692       0.008
   0.00000000  0.00000000  0.02770346       0.012
  -0.01385173  0.01385173  0.04155519       0.047
  -0.02770346  0.02770346  0.05540692       0.047
  -0.04155519  0.04155519  0.06925865       0.047
   0.05540692 -0.05540692 -0.02770346       0.047
   0.04155519 -0.04155519 -0.01385173       0.047
   0.02770346 -0.02770346  0.00000000       0.023
   0.00000000  0.00000000  0.05540692       0.012
  -0.01385173  0.01385173  0.06925865       0.047
  -0.02770346  0.02770346  0.08311038       0.047
   0.06925865 -0.06925865 -0.01385173       0.047
   0.05540692 -0.05540692  0.00000000       0.023
   0.00000000  0.00000000  0.08311038       0.012
  -0.01385173  0.01385173  0.09696211       0.047
   0.08311038 -0.08311038  0.00000000       0.023
   0.00000000  0.00000000  0.11081383       0.006
  -0.00000000  0.02770346  0.05540692       0.047
  -0.01385173  0.04155519  0.06925865       0.094
   0.08311038 -0.05540692 -0.02770346       0.047
   0.00000000  0.02770346  0.08311038       0.047
   0.09696211 -0.06925865 -0.01385173       0.094
   0.08311038 -0.05540692 -0.00000000       0.047
   0.11081383 -0.08311038  0.00000000       0.023
   0.11081383 -0.05540692  0.00000000       0.012
 
 k-points in reciprocal lattice and weights: KPOINTS                                 
   0.00000000  0.00000000  0.00000000       0.002
   0.12500000  0.00000000  0.00000000       0.016
   0.25000000  0.00000000  0.00000000       0.016
   0.37500000  0.00000000  0.00000000       0.016
   0.50000000  0.00000000  0.00000000       0.008
   0.12500000  0.12500000  0.00000000       0.012
   0.25000000  0.12500000  0.00000000       0.047
   0.37500000  0.12500000  0.00000000       0.047
   0.50000000  0.12500000  0.00000000       0.047
  -0.37500000  0.12500000  0.00000000       0.047
  -0.25000000  0.12500000  0.00000000       0.047
  -0.12500000  0.12500000  0.00000000       0.023
   0.25000000  0.25000000  0.00000000       0.012
   0.37500000  0.25000000  0.00000000       0.047
   0.50000000  0.25000000  0.00000000       0.047
  -0.37500000  0.25000000  0.00000000       0.047
  -0.25000000  0.25000000  0.00000000       0.023
   0.37500000  0.37500000  0.00000000       0.012
   0.50000000  0.37500000  0.00000000       0.047
  -0.37500000  0.37500000  0.00000000       0.023
   0.50000000  0.50000000  0.00000000       0.006
   0.37500000  0.25000000  0.12500000       0.047
   0.50000000  0.25000000  0.12500000       0.094
  -0.37500000  0.25000000  0.12500000       0.047
   0.50000000  0.37500000  0.12500000       0.047
  -0.37500000  0.37500000  0.12500000       0.094
  -0.25000000  0.37500000  0.12500000       0.047
  -0.37500000  0.50000000  0.12500000       0.023
  -0.25000000  0.50000000  0.25000000       0.012
 
 position of ions in fractional coordinates (direct lattice) 
   0.24999934  0.24999934  0.24999934
   0.00000000  0.00000000  0.00000000
   0.49999978  0.49999978  0.49999978
   0.75000022  0.75000022  0.75000022
 
 position of ions in cartesian coordinates  (Angst):
   2.25603000  2.25603000  2.25603000
   0.00000000  0.00000000  0.00000000
   4.51207000  4.51207000  4.51207000
   6.76811000  6.76811000  6.76811000
 


--------------------------------------------------------------------------------------------------------


 k-point  1 :   0.0000 0.0000 0.0000  plane waves:    4957
 k-point  2 :   0.1250 0.0000 0.0000  plane waves:    4951
 k-point  3 :   0.2500 0.0000 0.0000  plane waves:    4936
 k-point  4 :   0.3750 0.0000 0.0000  plane waves:    4958
 k-point  5 :   0.5000 0.0000 0.0000  plane waves:    4940
 k-point  6 :   0.1250 0.1250 0.0000  plane waves:    4929
 k-point  7 :   0.2500 0.1250 0.0000  plane waves:    4930
 k-point  8 :   0.3750 0.1250 0.0000  plane waves:    4943
 k-point  9 :   0.5000 0.1250 0.0000  plane waves:    4954
 k-point 10 :  -0.3750 0.1250 0.0000  plane waves:    4944
 k-point 11 :  -0.2500 0.1250 0.0000  plane waves:    4929
 k-point 12 :  -0.1250 0.1250 0.0000  plane waves:    4920
 k-point 13 :   0.2500 0.2500 0.0000  plane waves:    4953
 k-point 14 :   0.3750 0.2500 0.0000  plane waves:    4955
 k-point 15 :   0.5000 0.2500 0.0000  plane waves:    4955
 k-point 16 :  -0.3750 0.2500 0.0000  plane waves:    4944
 k-point 17 :  -0.2500 0.2500 0.0000  plane waves:    4948
 k-point 18 :   0.3750 0.3750 0.0000  plane waves:    4929
 k-point 19 :   0.5000 0.3750 0.0000  plane waves:    4940
 k-point 20 :  -0.3750 0.3750 0.0000  plane waves:    4944
 k-point 21 :   0.5000 0.5000 0.0000  plane waves:    4960
 k-point 22 :   0.3750 0.2500 0.1250  plane waves:    4938
 k-point 23 :   0.5000 0.2500 0.1250  plane waves:    4945
 k-point 24 :  -0.3750 0.2500 0.1250  plane waves:    4962
 k-point 25 :   0.5000 0.3750 0.1250  plane waves:    4935
 k-point 26 :  -0.3750 0.3750 0.1250  plane waves:    4957
 k-point 27 :  -0.2500 0.3750 0.1250  plane waves:    4949
 k-point 28 :  -0.3750 0.5000 0.1250  plane waves:    4942
 k-point 29 :  -0.2500 0.5000 0.2500  plane waves:    4988

 maximum and minimum number of plane-waves per node :       719      693

 maximum number of plane-waves:      4988
 maximum index in each direction: 
   IXMAX=   12   IYMAX=   11   IZMAX=   11
   IXMIN=  -12   IYMIN=  -12   IZMIN=  -12


 parallel 3D FFT for wavefunctions:
    minimum data exchange during FFTs selected (reduces bandwidth)
 parallel 3D FFT for charge:
    minimum data exchange during FFTs selected (reduces bandwidth)


 total amount of memory used by VASP MPI-rank0    57184. kBytes
=======================================================================

   base      :      30000. kBytes
   nonl-proj :       6515. kBytes
   fftplans  :       4869. kBytes
   grid      :       9037. kBytes
   one-center:          8. kBytes
   wavefun   :       6755. kBytes
 
     INWAV:  cpu time    0.0000: real time    0.0000
 Broyden mixing: mesh for mixing (old mesh)
   NGX = 23   NGY = 23   NGZ = 23
  (NGX  = 96   NGY  = 96   NGZ  = 96)
  gives a total of  12167 points

 initial charge density was supplied:
 charge density of overlapping atoms calculated
 number of electron      32.0000000 magnetization 
 keeping initial charge density in first step


--------------------------------------------------------------------------------------------------------


 Maximum index for augmentation-charges         4634 (set IRDMAX)


--------------------------------------------------------------------------------------------------------


 First call to EWALD:  gamma=   0.312
 Maximum number of real-space cells 3x 3x 3
 Maximum number of reciprocal cells 3x 3x 3

    FEWALD:  cpu time    0.0015: real time    0.0015


--------------------------------------- Iteration      1(   1)  ---------------------------------------


    POTLOK:  cpu time    0.0800: real time    0.0843
    SETDIJ:  cpu time    0.0047: real time    0.0047
     EDDAV:  cpu time    0.3846: real time    0.3848
       DOS:  cpu time    0.0006: real time    0.0006
    --------------------------------------------
      LOOP:  cpu time    0.4699: real time    0.4745

 eigenvalue-minimisations  :  1160
 total energy-change (2. order) : 0.2281629E+03  (-0.1281584E+04)
 number of electron      32.0000000 magnetization 
 augmentation part       32.0000000 magnetization 

 Free energy of the ion-electron system (eV)
  ---------------------------------------------------
  alpha Z        PSCENC =        93.20389027
  Ewald energy   TEWEN  =     -1521.91983869
  -Hartree energ DENC   =      -398.17613172
  -exchange      EXHF   =         0.00000000
  -V(xc)+E(xc)   XCENC  =        22.24555310
  PAW double counting   =      1598.61849123    -1528.63182258
  entropy T*S    EENTRO =        -0.00347085
  eigenvalues    EBANDS =       -67.81237733
  atomic energy  EATOM  =      2030.63862089
  Solvation  Ediel_sol  =         0.00000000
  ---------------------------------------------------
  free energy    TOTEN  =       228.16291432 eV

  energy without entropy =      228.16638517  energy(sigma->0) =      228.16464975


--------------------------------------------------------------------------------------------------------




--------------------------------------- Iteration      1(   2)  ---------------------------------------


     EDDAV:  cpu time    0.4286: real time    0.4308
       DOS:  cpu time    0.0002: real time    0.0002
    --------------------------------------------
      LOOP:  cpu time    0.4289: real time    0.4311

 eigenvalue-minimisations  :  1528
 total energy-change (2. order) :-0.2174767E+03  (-0.2122889E+03)
 number of electron      32.0000000 magnetization 
 augmentation part       32.0000000 magnetization 

 Free energy of the ion-electron system (eV)
  ---------------------------------------------------
  alpha Z        PSCENC =        93.20389027
  Ewald energy   TEWEN  =     -1521.91983869
  -Hartree energ DENC   =      -398.17613172
  -exchange      EXHF   =         0.00000000
  -V(xc)+E(xc)   XCENC  =        22.24555310
  PAW double counting   =      1598.61849123    -1528.63182258
  entropy T*S    EENTRO =        -0.00000000
  eigenvalues    EBANDS =      -285.29254187
  atomic energy  EATOM  =      2030.63862089
  Solvation  Ediel_sol  =         0.00000000
  ---------------------------------------------------
  free energy    TOTEN  =        10.68622063 eV

  energy without entropy =       10.68622063  energy(sigma->0) =       10.68622063


--------------------------------------------------------------------------------------------------------




--------------------------------------- Iteration      1(   3)  ---------------------------------------


     EDDAV:  cpu time    0.4982: real time    0.4994
       DOS:  cpu time    0.0003: real time    0.0003
    --------------------------------------------
      LOOP:  cpu time    0.4984: real time    0.4996

 eigenvalue-minimisations  :  1784
 total energy-change (2. order) :-0.1967938E+02  (-0.1963718E+02)
 number of electron      32.0000000 magnetization 
 augmentation part       32.0000000 magnetization 

 Free energy of the ion-electron system (eV)
  ---------------------------------------------------
  alpha Z        PSCENC =        93.20389027
  Ewald energy   TEWEN  =     -1521.91983869
  -Hartree energ DENC   =      -398.17613172
  -exchange      EXHF   =         0.00000000
  -V(xc)+E(xc)   XCENC  =        22.24555310
  PAW double counting   =      1598.61849123    -1528.63182258
  entropy T*S    EENTRO =        -0.00000000
  eigenvalues    EBANDS =      -304.97191955
  atomic energy  EATOM  =      2030.63862089
  Solvation  Ediel_sol  =         0.00000000
  ---------------------------------------------------
  free energy    TOTEN  =        -8.99315705 eV

  energy without entropy =       -8.99315705  energy(sigma->0) =       -8.99315705


--------------------------------------------------------------------------------------------------------




--------------------------------------- Iteration      1(   4)  ---------------------------------------


     EDDAV:  cpu time    0.4593: real time    0.4605
       DOS:  cpu time    0.0003: real time    0.0002
    --------------------------------------------
      LOOP:  cpu time    0.4596: real time    0.4607

 eigenvalue-minimisations  :  1656
 total energy-change (2. order) :-0.4814274E+00  (-0.4800382E+00)
 number of electron      32.0000000 magnetization 
 augmentation part       32.0000000 magnetization 

 Free energy of the ion-electron system (eV)
  ---------------------------------------------------
  alpha Z        PSCENC =        93.20389027
  Ewald energy   TEWEN  =     -1521.91983869
  -Hartree energ DENC   =      -398.17613172
  -exchange      EXHF   =         0.00000000
  -V(xc)+E(xc)   XCENC  =        22.24555310
  PAW double counting   =      1598.61849123    -1528.63182258
  entropy T*S    EENTRO =        -0.00000000
  eigenvalues    EBANDS =      -305.45334693
  atomic energy  EATOM  =      2030.63862089
  Solvation  Ediel_sol  =         0.00000000
  ---------------------------------------------------
  free energy    TOTEN  =        -9.47458442 eV

  energy without entropy =       -9.47458442  energy(sigma->0) =       -9.47458442


--------------------------------------------------------------------------------------------------------




--------------------------------------- Iteration      1(   5)  ---------------------------------------


     EDDAV:  cpu time    0.4391: real time    0.4394
       DOS:  cpu time    0.0003: real time    0.0003
    CHARGE:  cpu time    0.0523: real time    0.0524
    MIXING:  cpu time    0.0047: real time    0.0047
    --------------------------------------------
      LOOP:  cpu time    0.4964: real time    0.4968

 eigenvalue-minimisations  :  1528
 total energy-change (2. order) :-0.1195449E-01  (-0.1195287E-01)
 number of electron      32.0000001 magnetization 
 augmentation part       -3.1119896 magnetization 

 Broyden mixing:
  rms(total) = 0.43121E+00    rms(broyden)= 0.43121E+00
  rms(prec ) = 0.11958E+01
  weight for this iteration     100.00

 Free energy of the ion-electron system (eV)
  ---------------------------------------------------
  alpha Z        PSCENC =        93.20389027
  Ewald energy   TEWEN  =     -1521.91983869
  -Hartree energ DENC   =      -398.17613172
  -exchange      EXHF   =         0.00000000
  -V(xc)+E(xc)   XCENC  =        22.24555310
  PAW double counting   =      1598.61849123    -1528.63182258
  entropy T*S    EENTRO =        -0.00000000
  eigenvalues    EBANDS =      -305.46530142
  atomic energy  EATOM  =      2030.63862089
  Solvation  Ediel_sol  =         0.00000000
  ---------------------------------------------------
  free energy    TOTEN  =        -9.48653891 eV

  energy without entropy =       -9.48653891  energy(sigma->0) =       -9.48653891


--------------------------------------------------------------------------------------------------------




--------------------------------------- Iteration      1(   6)  ---------------------------------------


    POTLOK:  cpu time    0.0831: real time    0.0834
    SETDIJ:  cpu time    0.0055: real time    0.0055
     EDDAV:  cpu time    0.4038: real time    0.4038
       DOS:  cpu time    0.0003: real time    0.0003
    CHARGE:  cpu time    0.0502: real time    0.0502
    MIXING:  cpu time    0.0051: real time    0.0051
    --------------------------------------------
      LOOP:  cpu time    0.5479: real time    0.5483

 eigenvalue-minimisations  :  1364
 total energy-change (2. order) : 0.1096633E+01  (-0.2068593E+00)
 number of electron      32.0000001 magnetization 
 augmentation part       -3.1013070 magnetization 

 Broyden mixing:
  rms(total) = 0.30512E+00    rms(broyden)= 0.30512E+00
  rms(prec ) = 0.56180E+00
  weight for this iteration     100.00

 eigenvalues of (default mixing * dielectric matrix)
  average eigenvalue GAMMA=   1.5840
  1.5840

 Free energy of the ion-electron system (eV)
  ---------------------------------------------------
  alpha Z        PSCENC =        93.20389027
  Ewald energy   TEWEN  =     -1521.91983869
  -Hartree energ DENC   =      -392.10592954
  -exchange      EXHF   =         0.00000000
  -V(xc)+E(xc)   XCENC  =        22.26576865
  PAW double counting   =      1629.33700478    -1559.94281116
  entropy T*S    EENTRO =        -0.00000000
  eigenvalues    EBANDS =      -309.86661112
  atomic energy  EATOM  =      2030.63862089
  Solvation  Ediel_sol  =         0.00000000
  ---------------------------------------------------
  free energy    TOTEN  =        -8.38990592 eV

  energy without entropy =       -8.38990592  energy(sigma->0) =       -8.38990592


--------------------------------------------------------------------------------------------------------




--------------------------------------- Iteration      1(   7)  ---------------------------------------


    POTLOK:  cpu time    0.0813: real time    0.0816
    SETDIJ:  cpu time    0.0051: real time    0.0051
     EDDAV:  cpu time    0.4193: real time    0.4194
       DOS:  cpu time    0.0003: real time    0.0003
    CHARGE:  cpu time    0.0501: real time    0.0501
    MIXING:  cpu time    0.0044: real time    0.0044
    --------------------------------------------
      LOOP:  cpu time    0.5603: real time    0.5608

 eigenvalue-minimisations  :  1460
 total energy-change (2. order) : 0.1255475E+00  (-0.1263291E+00)
 number of electron      32.0000001 magnetization 
 augmentation part       -3.1193343 magnetization 

 Broyden mixing:
  rms(total) = 0.16906E+00    rms(broyden)= 0.16906E+00
  rms(prec ) = 0.23381E+00
  weight for this iteration     100.00

 eigenvalues of (default mixing * dielectric matrix)
  average eigenvalue GAMMA=   1.9739
  1.9739  1.9739

 Free energy of the ion-electron system (eV)
  ---------------------------------------------------
  alpha Z        PSCENC =        93.20389027
  Ewald energy   TEWEN  =     -1521.91983869
  -Hartree energ DENC   =      -387.41916949
  -exchange      EXHF   =         0.00000000
  -V(xc)+E(xc)   XCENC  =        22.28424884
  PAW double counting   =      1690.92238776    -1621.88454175
  entropy T*S    EENTRO =        -0.00000000
  eigenvalues    EBANDS =      -314.08995620
  atomic energy  EATOM  =      2030.63862089
  Solvation  Ediel_sol  =         0.00000000
  ---------------------------------------------------
  free energy    TOTEN  =        -8.26435838 eV

  energy without entropy =       -8.26435838  energy(sigma->0) =       -8.26435838


--------------------------------------------------------------------------------------------------------




--------------------------------------- Iteration      1(   8)  ---------------------------------------


    POTLOK:  cpu time    0.0831: real time    0.0844
    SETDIJ:  cpu time    0.0056: real time    0.0056
     EDDAV:  cpu time    0.4125: real time    0.4126
       DOS:  cpu time    0.0003: real time    0.0003
    CHARGE:  cpu time    0.0487: real time    0.0487
    MIXING:  cpu time    0.0039: real time    0.0039
    --------------------------------------------
      LOOP:  cpu time    0.5541: real time    0.5555

 eigenvalue-minimisations  :  1296
 total energy-change (2. order) :-0.2030067E-01  (-0.2949922E-01)
 number of electron      32.0000001 magnetization 
 augmentation part       -3.1499781 magnetization 

 Broyden mixing:
  rms(total) = 0.41919E-01    rms(broyden)= 0.41918E-01
  rms(prec ) = 0.14835E+00
  weight for this iteration     100.00

 eigenvalues of (default mixing * dielectric matrix)
  average eigenvalue GAMMA=   1.6704
  2.4912  1.2600  1.2600

 Free energy of the ion-electron system (eV)
  ---------------------------------------------------
  alpha Z        PSCENC =        93.20389027
  Ewald energy   TEWEN  =     -1521.91983869
  -Hartree energ DENC   =      -387.31077106
  -exchange      EXHF   =         0.00000000
  -V(xc)+E(xc)   XCENC  =        22.33659748
  PAW double counting   =      1758.83537737    -1689.61375232
  entropy T*S    EENTRO =        -0.00000000
  eigenvalues    EBANDS =      -314.45478299
  atomic energy  EATOM  =      2030.63862089
  Solvation  Ediel_sol  =         0.00000000
  ---------------------------------------------------
  free energy    TOTEN  =        -8.28465904 eV

  energy without entropy =       -8.28465904  energy(sigma->0) =       -8.28465904


--------------------------------------------------------------------------------------------------------




--------------------------------------- Iteration      1(   9)  ---------------------------------------


    POTLOK:  cpu time    0.0816: real time    0.0819
    SETDIJ:  cpu time    0.0051: real time    0.0051
     EDDAV:  cpu time    0.3872: real time    0.3873
       DOS:  cpu time    0.0003: real time    0.0003
    CHARGE:  cpu time    0.0489: real time    0.0489
    MIXING:  cpu time    0.0040: real time    0.0040
    --------------------------------------------
      LOOP:  cpu time    0.5270: real time    0.5275

 eigenvalue-minimisations  :  1344
 total energy-change (2. order) : 0.1841334E-01  (-0.1181779E-01)
 number of electron      32.0000001 magnetization 
 augmentation part       -3.1488765 magnetization 

 Broyden mixing:
  rms(total) = 0.29513E-01    rms(broyden)= 0.29513E-01
  rms(prec ) = 0.37886E-01
  weight for this iteration     100.00

 eigenvalues of (default mixing * dielectric matrix)
  average eigenvalue GAMMA=   1.3854
  2.5859  1.2697  1.2697  0.4161

 Free energy of the ion-electron system (eV)
  ---------------------------------------------------
  alpha Z        PSCENC =        93.20389027
  Ewald energy   TEWEN  =     -1521.91983869
  -Hartree energ DENC   =      -386.30558769
  -exchange      EXHF   =         0.00000000
  -V(xc)+E(xc)   XCENC  =        22.36594036
  PAW double counting   =      1767.16295997    -1698.02697396
  entropy T*S    EENTRO =        -0.00000000
  eigenvalues    EBANDS =      -315.38525686
  atomic energy  EATOM  =      2030.63862089
  Solvation  Ediel_sol  =         0.00000000
  ---------------------------------------------------
  free energy    TOTEN  =        -8.26624571 eV

  energy without entropy =       -8.26624571  energy(sigma->0) =       -8.26624571


--------------------------------------------------------------------------------------------------------




--------------------------------------- Iteration      1(  10)  ---------------------------------------


    POTLOK:  cpu time    0.0816: real time    0.0819
    SETDIJ:  cpu time    0.0050: real time    0.0050
     EDDAV:  cpu time    0.4213: real time    0.4214
       DOS:  cpu time    0.0003: real time    0.0003
    CHARGE:  cpu time    0.0484: real time    0.0484
    MIXING:  cpu time    0.0041: real time    0.0041
    --------------------------------------------
      LOOP:  cpu time    0.5607: real time    0.5611

 eigenvalue-minimisations  :  1472
 total energy-change (2. order) :-0.4994071E-03  (-0.9308445E-03)
 number of electron      32.0000001 magnetization 
 augmentation part       -3.1549651 magnetization 

 Broyden mixing:
  rms(total) = 0.11654E-01    rms(broyden)= 0.11654E-01
  rms(prec ) = 0.16610E-01
  weight for this iteration     100.00

 eigenvalues of (default mixing * dielectric matrix)
  average eigenvalue GAMMA=   1.7203
  3.2727  2.0327  1.5558  0.8701  0.8701

 Free energy of the ion-electron system (eV)
  ---------------------------------------------------
  alpha Z        PSCENC =        93.20389027
  Ewald energy   TEWEN  =     -1521.91983869
  -Hartree energ DENC   =      -386.56862860
  -exchange      EXHF   =         0.00000000
  -V(xc)+E(xc)   XCENC  =        22.36528768
  PAW double counting   =      1758.32719707    -1689.15215536
  entropy T*S    EENTRO =        -0.00000000
  eigenvalues    EBANDS =      -315.16111837
  atomic energy  EATOM  =      2030.63862089
  Solvation  Ediel_sol  =         0.00000000
  ---------------------------------------------------
  free energy    TOTEN  =        -8.26674511 eV

  energy without entropy =       -8.26674511  energy(sigma->0) =       -8.26674511


--------------------------------------------------------------------------------------------------------




--------------------------------------- Iteration      1(  11)  ---------------------------------------


    POTLOK:  cpu time    0.0818: real time    0.0821
    SETDIJ:  cpu time    0.0051: real time    0.0051
     EDDAV:  cpu time    0.3978: real time    0.3980
       DOS:  cpu time    0.0003: real time    0.0003
    CHARGE:  cpu time    0.0488: real time    0.0488
    MIXING:  cpu time    0.0041: real time    0.0041
    --------------------------------------------
      LOOP:  cpu time    0.5379: real time    0.5383

 eigenvalue-minimisations  :  1360
 total energy-change (2. order) :-0.3207283E-03  (-0.8875787E-04)
 number of electron      32.0000001 magnetization 
 augmentation part       -3.1542928 magnetization 

 Broyden mixing:
  rms(total) = 0.28149E-02    rms(broyden)= 0.28149E-02
  rms(prec ) = 0.48757E-02
  weight for this iteration     100.00

 eigenvalues of (default mixing * dielectric matrix)
  average eigenvalue GAMMA=   1.5931
  2.8930  2.3450  1.2919  1.2919  0.8683  0.8683

 Free energy of the ion-electron system (eV)
  ---------------------------------------------------
  alpha Z        PSCENC =        93.20389027
  Ewald energy   TEWEN  =     -1521.91983869
  -Hartree energ DENC   =      -386.71139852
  -exchange      EXHF   =         0.00000000
  -V(xc)+E(xc)   XCENC  =        22.38013206
  PAW double counting   =      1756.25390991    -1687.01619344
  entropy T*S    EENTRO =        -0.00000000
  eigenvalues    EBANDS =      -315.09618833
  atomic energy  EATOM  =      2030.63862089
  Solvation  Ediel_sol  =         0.00000000
  ---------------------------------------------------
  free energy    TOTEN  =        -8.26706584 eV

  energy without entropy =       -8.26706584  energy(sigma->0) =       -8.26706584


--------------------------------------------------------------------------------------------------------




--------------------------------------- Iteration      1(  12)  ---------------------------------------


    POTLOK:  cpu time    0.0816: real time    0.0819
    SETDIJ:  cpu time    0.0050: real time    0.0050
     EDDAV:  cpu time    0.3496: real time    0.3496
       DOS:  cpu time    0.0003: real time    0.0003
    CHARGE:  cpu time    0.0489: real time    0.0489
    MIXING:  cpu time    0.0041: real time    0.0041
    --------------------------------------------
      LOOP:  cpu time    0.4895: real time    0.4899

 eigenvalue-minimisations  :  1116
 total energy-change (2. order) : 0.7578644E-05  (-0.1887795E-04)
 number of electron      32.0000001 magnetization 
 augmentation part       -3.1546218 magnetization 

 Broyden mixing:
  rms(total) = 0.13231E-02    rms(broyden)= 0.13231E-02
  rms(prec ) = 0.29972E-02
  weight for this iteration     100.00

 eigenvalues of (default mixing * dielectric matrix)
  average eigenvalue GAMMA=   1.6920
  2.9833  2.6870  2.0032  1.1854  1.0808  1.0808  0.8237

 Free energy of the ion-electron system (eV)
  ---------------------------------------------------
  alpha Z        PSCENC =        93.20389027
  Ewald energy   TEWEN  =     -1521.91983869
  -Hartree energ DENC   =      -386.71038551
  -exchange      EXHF   =         0.00000000
  -V(xc)+E(xc)   XCENC  =        22.37758032
  PAW double counting   =      1757.22937821    -1687.99049203
  entropy T*S    EENTRO =        -0.00000000
  eigenvalues    EBANDS =      -315.09581172
  atomic energy  EATOM  =      2030.63862089
  Solvation  Ediel_sol  =         0.00000000
  ---------------------------------------------------
  free energy    TOTEN  =        -8.26705826 eV

  energy without entropy =       -8.26705826  energy(sigma->0) =       -8.26705826


--------------------------------------------------------------------------------------------------------




--------------------------------------- Iteration      1(  13)  ---------------------------------------


    POTLOK:  cpu time    0.0815: real time    0.0818
    SETDIJ:  cpu time    0.0051: real time    0.0051
     EDDAV:  cpu time    0.3603: real time    0.3603
       DOS:  cpu time    0.0003: real time    0.0003
    --------------------------------------------
      LOOP:  cpu time    0.4471: real time    0.4474

 eigenvalue-minimisations  :  1128
 total energy-change (2. order) : 0.3138234E-07  (-0.4614133E-05)
 number of electron      32.0000001 magnetization 
 augmentation part       -3.1546218 magnetization 

 Free energy of the ion-electron system (eV)
  ---------------------------------------------------
  alpha Z        PSCENC =        93.20389027
  Ewald energy   TEWEN  =     -1521.91983869
  -Hartree energ DENC   =      -386.68890823
  -exchange      EXHF   =         0.00000000
  -V(xc)+E(xc)   XCENC  =        22.37729044
  PAW double counting   =      1757.68497455    -1688.44346457
  entropy T*S    EENTRO =        -0.00000000
  eigenvalues    EBANDS =      -315.11962289
  atomic energy  EATOM  =      2030.63862089
  Solvation  Ediel_sol  =         0.00000000
  ---------------------------------------------------
  free energy    TOTEN  =        -8.26705823 eV

  energy without entropy =       -8.26705823  energy(sigma->0) =       -8.26705823


--------------------------------------------------------------------------------------------------------




 average (electrostatic) potential at core
  the test charge radii are     1.1312  1.1097  1.1712
  (the norm of the test charge is              1.0000)
       1 -51.0160       2 -38.0826       3 -38.0826       4 -88.9681
 
 
 
 E-fermi :   2.1715     XC(G=0):  -7.6211     alpha+bet : -7.4495


 k-point     1 :       0.0000    0.0000    0.0000
  band No.  band energies     occupation 
      1     -25.7871      2.00000
      2     -25.7666      2.00000
      3     -21.2746      2.00000
      4      -9.9794      2.00000
      5      -9.9794      2.00000
      6      -9.9794      2.00000
      7      -9.8862      2.00000
      8      -9.8862      2.00000
      9      -9.8862      2.00000
     10      -8.0870      2.00000
     11      -8.0870      2.00000
     12      -8.0870      2.00000
     13      -5.3001      2.00000
     14       1.7652      2.00000
     15       1.7652      2.00000
     16       1.7652      2.00000
     17       2.5390      0.00000
     18       3.7290      0.00000
     19       3.7290      0.00000
     20       4.8134      0.00000

 k-point     2 :       0.1250    0.0000    0.0000
  band No.  band energies     occupation 
      1     -25.7863      2.00000
      2     -25.7673      2.00000
      3     -21.2749      2.00000
      4      -9.9868      2.00000
      5      -9.9783      2.00000
      6      -9.9783      2.00000
      7      -9.8905      2.00000
      8      -9.8905      2.00000
      9      -9.8817      2.00000
     10      -8.0928      2.00000
     11      -8.0828      2.00000
     12      -8.0828      2.00000
     13      -5.2711      2.00000
     14       1.4471      2.00000
     15       1.7188      2.00000
     16       1.7188      2.00000
     17       3.0390      0.00000
     18       3.9163      0.00000
     19       3.9163      0.00000
     20       4.6526      0.00000

 k-point     3 :       0.2500    0.0000    0.0000
  band No.  band energies     occupation 
      1     -25.7838      2.00000
      2     -25.7694      2.00000
      3     -21.2757      2.00000
      4      -9.9930      2.00000
      5      -9.9746      2.00000
      6      -9.9746      2.00000
      7      -9.9018      2.00000
      8      -9.9018      2.00000
      9      -9.8845      2.00000
     10      -8.1015      2.00000
     11      -8.0729      2.00000
     12      -8.0729      2.00000
     13      -5.2079      2.00000
     14       1.1082      2.00000
     15       1.6302      2.00000
     16       1.6302      2.00000
     17       3.7914      0.00000
     18       4.3960      0.00000
     19       4.3960      0.00000
     20       4.4839      0.00000

 k-point     4 :       0.3750    0.0000    0.0000
  band No.  band energies     occupation 
      1     -25.7804      2.00000
      2     -25.7726      2.00000
      3     -21.2765      2.00000
      4      -9.9857      2.00000
      5      -9.9686      2.00000
      6      -9.9686      2.00000
      7      -9.9155      2.00000
      8      -9.9155      2.00000
      9      -9.9034      2.00000
     10      -8.1037      2.00000
     11      -8.0630      2.00000
     12      -8.0629      2.00000
     13      -5.1530      2.00000
     14       0.9179      2.00000
     15       1.5637      2.00000
     16       1.5637      2.00000
     17       4.1787      0.00000
     18       4.8311      0.00000
     19       4.8311      0.00000
     20       4.9170      0.00000

 k-point     5 :       0.5000    0.0000    0.0000
  band No.  band energies     occupation 
      1     -25.7765      2.00000
      2     -25.7763      2.00000
      3     -21.2768      2.00000
      4      -9.9764      2.00000
      5      -9.9647      2.00000
      6      -9.9647      2.00000
      7      -9.9225      2.00000
      8      -9.9225      2.00000
      9      -9.9180      2.00000
     10      -8.1031      2.00000
     11      -8.0589      2.00000
     12      -8.0588      2.00000
     13      -5.1323      2.00000
     14       0.8548      2.00000
     15       1.5408      2.00000
     16       1.5408      2.00000
     17       4.4899      0.00000
     18       4.8473      0.00000
     19       4.8874      0.00000
     20       4.8874      0.00000

 k-point     6 :       0.1250    0.1250    0.0000
  band No.  band energies     occupation 
      1     -25.7860      2.00000
      2     -25.7675      2.00000
      3     -21.2750      2.00000
      4      -9.9946      2.00000
      5      -9.9946      2.00000
      6      -9.9570      2.00000
      7      -9.9076      2.00000
      8      -9.8774      2.00000
      9      -9.8774      2.00000
     10      -8.1010      2.00000
     11      -8.0784      2.00000
     12      -8.0784      2.00000
     13      -5.2627      2.00000
     14       1.3061      2.00000
     15       1.7817      2.00000
     16       1.7817      2.00000
     17       3.0622      0.00000
     18       3.8337      0.00000
     19       4.1461      0.00000
     20       4.5016      0.00000

 k-point     7 :       0.2500    0.1250    0.0000
  band No.  band energies     occupation 
      1     -25.7842      2.00000
      2     -25.7691      2.00000
      3     -21.2756      2.00000
      4     -10.0067      2.00000
      5     -10.0043      2.00000
      6      -9.9383      2.00000
      7      -9.9293      2.00000
      8      -9.8752      2.00000
      9      -9.8729      2.00000
     10      -8.1103      2.00000
     11      -8.0708      2.00000
     12      -8.0684      2.00000
     13      -5.2148      2.00000
     14       1.0753      2.00000
     15       1.6992      2.00000
     16       1.7497      2.00000
     17       3.5883      0.00000
     18       4.1112      0.00000
     19       4.2456      0.00000
     20       4.6438      0.00000

 k-point     8 :       0.3750    0.1250    0.0000
  band No.  band energies     occupation 
      1     -25.7813      2.00000
      2     -25.7717      2.00000
      3     -21.2764      2.00000
      4     -10.0084      2.00000
      5     -10.0043      2.00000
      6      -9.9596      2.00000
      7      -9.9134      2.00000
      8      -9.8839      2.00000
      9      -9.8827      2.00000
     10      -8.1085      2.00000
     11      -8.0654      2.00000
     12      -8.0587      2.00000
     13      -5.1633      2.00000
     14       0.9639      2.00000
     15       1.5640      2.00000
     16       1.6660      2.00000
     17       4.0001      0.00000
     18       4.4780      0.00000
     19       4.6057      0.00000
     20       4.9048      0.00000

 k-point     9 :       0.5000    0.1250    0.0000
  band No.  band energies     occupation 
      1     -25.7777      2.00000
      2     -25.7751      2.00000
      3     -21.2769      2.00000
      4     -10.0089      2.00000
      5      -9.9928      2.00000
      6      -9.9699      2.00000
      7      -9.9105      2.00000
      8      -9.8972      2.00000
      9      -9.8898      2.00000
     10      -8.1004      2.00000
     11      -8.0638      2.00000
     12      -8.0549      2.00000
     13      -5.1354      2.00000
     14       0.9316      2.00000
     15       1.5017      2.00000
     16       1.5862      2.00000
     17       4.2590      0.00000
     18       4.7345      0.00000
     19       4.8600      0.00000
     20       5.0259      0.00000

 k-point    10 :      -0.3750    0.1250    0.0000
  band No.  band energies     occupation 
      1     -25.7788      2.00000
      2     -25.7740      2.00000
      3     -21.2768      2.00000
      4     -10.0175      2.00000
      5      -9.9714      2.00000
      6      -9.9635      2.00000
      7      -9.9255      2.00000
      8      -9.9155      2.00000
      9      -9.8725      2.00000
     10      -8.0986      2.00000
     11      -8.0639      2.00000
     12      -8.0592      2.00000
     13      -5.1410      2.00000
     14       0.9442      2.00000
     15       1.5396      2.00000
     16       1.5535      2.00000
     17       4.2466      0.00000
     18       4.6158      0.00000
     19       4.8348      0.00000
     20       4.9520      0.00000

 k-point    11 :      -0.2500    0.1250    0.0000
  band No.  band energies     occupation 
      1     -25.7823      2.00000
      2     -25.7708      2.00000
      3     -21.2762      2.00000
      4     -10.0176      2.00000
      5      -9.9742      2.00000
      6      -9.9477      2.00000
      7      -9.9316      2.00000
      8      -9.9095      2.00000
      9      -9.8640      2.00000
     10      -8.1026      2.00000
     11      -8.0692      2.00000
     12      -8.0661      2.00000
     13      -5.1783      2.00000
     14       1.0159      2.00000
     15       1.5461      2.00000
     16       1.6827      2.00000
     17       3.9373      0.00000
     18       4.3645      0.00000
     19       4.6056      0.00000
     20       4.7861      0.00000

 k-point    12 :      -0.1250    0.1250    0.0000
  band No.  band energies     occupation 
      1     -25.7849      2.00000
      2     -25.7685      2.00000
      3     -21.2754      2.00000
      4     -10.0044      2.00000
      5      -9.9814      2.00000
      6      -9.9592      2.00000
      7      -9.9127      2.00000
      8      -9.8923      2.00000
      9      -9.8701      2.00000
     10      -8.1005      2.00000
     11      -8.0790      2.00000
     12      -8.0733      2.00000
     13      -5.2327      2.00000
     14       1.1967      2.00000
     15       1.6145      2.00000
     16       1.7735      2.00000
     17       3.4410      0.00000
     18       4.1279      0.00000
     19       4.3192      0.00000
     20       4.4340      0.00000

 k-point    13 :       0.2500    0.2500    0.0000
  band No.  band energies     occupation 
      1     -25.7833      2.00000
      2     -25.7698      2.00000
      3     -21.2761      2.00000
      4     -10.0268      2.00000
      5     -10.0268      2.00000
      6      -9.9597      2.00000
      7      -9.9019      2.00000
      8      -9.8601      2.00000
      9      -9.8601      2.00000
     10      -8.1279      2.00000
     11      -8.0585      2.00000
     12      -8.0585      2.00000
     13      -5.1930      2.00000
     14       0.9494      2.00000
     15       1.8189      2.00000
     16       1.8189      2.00000
     17       3.6797      0.00000
     18       3.8798      0.00000
     19       4.1464      0.00000
     20       5.0239      0.00000

 k-point    14 :       0.3750    0.2500    0.0000
  band No.  band energies     occupation 
      1     -25.7813      2.00000
      2     -25.7715      2.00000
      3     -21.2767      2.00000
      4     -10.0389      2.00000
      5     -10.0365      2.00000
      6      -9.9848      2.00000
      7      -9.8748      2.00000
      8      -9.8602      2.00000
      9      -9.8575      2.00000
     10      -8.1304      2.00000
     11      -8.0520      2.00000
     12      -8.0489      2.00000
     13      -5.1620      2.00000
     14       0.9438      2.00000
     15       1.7256      2.00000
     16       1.7898      2.00000
     17       3.7090      0.00000
     18       4.0873      0.00000
     19       4.4922      0.00000
     20       4.9533      0.00000

 k-point    15 :       0.5000    0.2500    0.0000
  band No.  band energies     occupation 
      1     -25.7787      2.00000
      2     -25.7740      2.00000
      3     -21.2772      2.00000
      4     -10.0491      2.00000
      5     -10.0305      2.00000
      6      -9.9875      2.00000
      7      -9.8833      2.00000
      8      -9.8664      2.00000
      9      -9.8527      2.00000
     10      -8.1144      2.00000
     11      -8.0566      2.00000
     12      -8.0453      2.00000
     13      -5.1407      2.00000
     14       1.0518      2.00000
     15       1.5152      2.00000
     16       1.6988      2.00000
     17       3.8610      0.00000
     18       4.3697      0.00000
     19       4.8528      0.00000
     20       4.9289      0.00000

 k-point    16 :      -0.3750    0.2500    0.0000
  band No.  band energies     occupation 
      1     -25.7769      2.00000
      2     -25.7758      2.00000
      3     -21.2772      2.00000
      4     -10.0539      2.00000
      5     -10.0092      2.00000
      6      -9.9666      2.00000
      7      -9.9180      2.00000
      8      -9.8847      2.00000
      9      -9.8415      2.00000
     10      -8.0914      2.00000
     11      -8.0712      2.00000
     12      -8.0496      2.00000
     13      -5.1360      2.00000
     14       1.1260      2.00000
     15       1.4178      2.00000
     16       1.6003      2.00000
     17       4.1926      0.00000
     18       4.3065      0.00000
     19       4.8528      0.00000
     20       4.8838      0.00000

 k-point    17 :      -0.2500    0.2500    0.0000
  band No.  band energies     occupation 
      1     -25.7798      2.00000
      2     -25.7730      2.00000
      3     -21.2768      2.00000
      4     -10.0431      2.00000
      5      -9.9767      2.00000
      6      -9.9525      2.00000
      7      -9.9365      2.00000
      8      -9.9099      2.00000
      9      -9.8443      2.00000
     10      -8.0923      2.00000
     11      -8.0708      2.00000
     12      -8.0595      2.00000
     13      -5.1495      2.00000
     14       1.0384      2.00000
     15       1.5385      2.00000
     16       1.5718      2.00000
     17       4.1388      0.00000
     18       4.4235      0.00000
     19       4.5807      0.00000
     20       4.7915      0.00000

 k-point    18 :       0.3750    0.3750    0.0000
  band No.  band energies     occupation 
      1     -25.7806      2.00000
      2     -25.7720      2.00000
      3     -21.2771      2.00000
      4     -10.0559      2.00000
      5     -10.0559      2.00000
      6     -10.0118      2.00000
      7      -9.8457      2.00000
      8      -9.8450      2.00000
      9      -9.8450      2.00000
     10      -8.1459      2.00000
     11      -8.0395      2.00000
     12      -8.0395      2.00000
     13      -5.1529      2.00000
     14       0.9644      2.00000
     15       1.8522      2.00000
     16       1.8522      2.00000
     17       3.3700      0.00000
     18       4.0097      0.00000
     19       4.6611      0.00000
     20       4.8896      0.00000

 k-point    19 :       0.5000    0.3750    0.0000
  band No.  band energies     occupation 
      1     -25.7793      2.00000
      2     -25.7732      2.00000
      3     -21.2774      2.00000
      4     -10.0674      2.00000
      5     -10.0576      2.00000
      6     -10.0159      2.00000
      7      -9.8523      2.00000
      8      -9.8461      2.00000
      9      -9.8297      2.00000
     10      -8.1398      2.00000
     11      -8.0394      2.00000
     12      -8.0358      2.00000
     13      -5.1439      2.00000
     14       1.0719      2.00000
     15       1.7209      2.00000
     16       1.8155      2.00000
     17       3.4147      0.00000
     18       3.9485      0.00000
     19       4.9951      0.00000
     20       4.9979      0.00000

 k-point    20 :      -0.3750    0.3750    0.0000
  band No.  band energies     occupation 
      1     -25.7776      2.00000
      2     -25.7749      2.00000
      3     -21.2775      2.00000
      4     -10.0716      2.00000
      5     -10.0408      2.00000
      6      -9.9937      2.00000
      7      -9.8819      2.00000
      8      -9.8599      2.00000
      9      -9.8274      2.00000
     10      -8.1159      2.00000
     11      -8.0533      2.00000
     12      -8.0400      2.00000
     13      -5.1378      2.00000
     14       1.2160      2.00000
     15       1.4373      2.00000
     16       1.7115      2.00000
     17       3.7756      0.00000
     18       4.0507      0.00000
     19       4.9617      0.00000
     20       5.2317      0.00000

 k-point    21 :       0.5000    0.5000    0.0000
  band No.  band energies     occupation 
      1     -25.7795      2.00000
      2     -25.7729      2.00000
      3     -21.2775      2.00000
      4     -10.0674      2.00000
      5     -10.0674      2.00000
      6     -10.0334      2.00000
      7      -9.8391      2.00000
      8      -9.8391      2.00000
      9      -9.8221      2.00000
     10      -8.1510      2.00000
     11      -8.0319      2.00000
[...]
      9      -9.9053      2.00000
     10      -8.1658      2.00000
     11      -8.1106      2.00000
     12      -8.0997      2.00000
     13      -5.1845      2.00000
     14       1.0118      2.00000
     15       1.4741      2.00000
     16       1.6585      2.00000
     17       3.8076      0.00000
     18       4.3053      0.00000
     19       4.8044      0.00000
     20       4.8581      0.00000

 k-point    16 :      -0.3750    0.2500    0.0000
  band No.  band energies     occupation 
      1     -25.8299      2.00000
      2     -25.8288      2.00000
      3     -21.3303      2.00000
      4     -10.0991      2.00000
      5     -10.0560      2.00000
      6     -10.0157      2.00000
      7      -9.9680      2.00000
      8      -9.9363      2.00000
      9      -9.8945      2.00000
     10      -8.1440      2.00000
     11      -8.1246      2.00000
     12      -8.1038      2.00000
     13      -5.1799      2.00000
     14       1.0844      2.00000
     15       1.3770      2.00000
     16       1.5625      2.00000
     17       4.1363      0.00000
     18       4.2459      0.00000
     19       4.8013      0.00000
     20       4.8244      0.00000

 k-point    17 :      -0.2500    0.2500    0.0000
  band No.  band energies     occupation 
      1     -25.8327      2.00000
      2     -25.8262      2.00000
      3     -21.3300      2.00000
      4     -10.0889      2.00000
      5     -10.0246      2.00000
      6     -10.0013      2.00000
      7      -9.9864      2.00000
      8      -9.9607      2.00000
      9      -9.8972      2.00000
     10      -8.1447      2.00000
     11      -8.1242      2.00000
     12      -8.1132      2.00000
     13      -5.1932      2.00000
     14       0.9984      2.00000
     15       1.5027      2.00000
     16       1.5290      2.00000
     17       4.0791      0.00000
     18       4.3698      0.00000
     19       4.5199      0.00000
     20       4.7373      0.00000

 k-point    18 :       0.3750    0.3750    0.0000
  band No.  band energies     occupation 
      1     -25.8335      2.00000
      2     -25.8253      2.00000
      3     -21.3302      2.00000
      4     -10.1012      2.00000
      5     -10.1012      2.00000
      6     -10.0592      2.00000
      7      -9.8986      2.00000
      8      -9.8978      2.00000
      9      -9.8978      2.00000
     10      -8.1956      2.00000
     11      -8.0942      2.00000
     12      -8.0941      2.00000
     13      -5.1964      2.00000
     14       0.9266      2.00000
     15       1.8076      2.00000
     16       1.8076      2.00000
     17       3.3229      0.00000
     18       3.9393      0.00000
     19       4.6192      0.00000
     20       4.8218      0.00000

 k-point    19 :       0.5000    0.3750    0.0000
  band No.  band energies     occupation 
      1     -25.8322      2.00000
      2     -25.8264      2.00000
      3     -21.3305      2.00000
      4     -10.1121      2.00000
      5     -10.1028      2.00000
      6     -10.0633      2.00000
      7      -9.9048      2.00000
      8      -9.8989      2.00000
      9      -9.8831      2.00000
     10      -8.1900      2.00000
     11      -8.0941      2.00000
     12      -8.0906      2.00000
     13      -5.1875      2.00000
     14       1.0318      2.00000
     15       1.6766      2.00000
     16       1.7717      2.00000
     17       3.3672      0.00000
     18       3.8840      0.00000
     19       4.9257      0.00000
     20       4.9510      0.00000

 k-point    20 :      -0.3750    0.3750    0.0000
  band No.  band energies     occupation 
      1     -25.8306      2.00000
      2     -25.8280      2.00000
      3     -21.3306      2.00000
      4     -10.1161      2.00000
      5     -10.0866      2.00000
      6     -10.0419      2.00000
      7      -9.9332      2.00000
      8      -9.9124      2.00000
      9      -9.8809      2.00000
     10      -8.1673      2.00000
     11      -8.1075      2.00000
     12      -8.0946      2.00000
     13      -5.1815      2.00000
     14       1.1748      2.00000
     15       1.3942      2.00000
     16       1.6706      2.00000
     17       3.7232      0.00000
     18       3.9917      0.00000
     19       4.9119      0.00000
     20       5.1602      0.00000

 k-point    21 :       0.5000    0.5000    0.0000
  band No.  band energies     occupation 
      1     -25.8324      2.00000
      2     -25.8261      2.00000
      3     -21.3306      2.00000
      4     -10.1122      2.00000
      5     -10.1122      2.00000
      6     -10.0801      2.00000
      7      -9.8922      2.00000
      8      -9.8922      2.00000
      9      -9.8758      2.00000
     10      -8.2006      2.00000
     11      -8.0869      2.00000
     12      -8.0869      2.00000
     13      -5.1885      2.00000
     14       1.0323      2.00000
     15       1.8194      2.00000
     16       1.8194      2.00000
     17       3.1356      0.00000
     18       3.7276      0.00000
     19       4.9351      0.00000
     20       5.2288      0.00000

 k-point    22 :       0.3750    0.2500    0.1250
  band No.  band energies     occupation 
      1     -25.8351      2.00000
      2     -25.8240      2.00000
      3     -21.3295      2.00000
      4     -10.0776      2.00000
      5     -10.0491      2.00000
      6     -10.0086      2.00000
      7      -9.9593      2.00000
      8      -9.9398      2.00000
      9      -9.9075      2.00000
     10      -8.1662      2.00000
     11      -8.1154      2.00000
     12      -8.1146      2.00000
     13      -5.2202      2.00000
     14       0.9434      2.00000
     15       1.6004      2.00000
     16       1.6984      2.00000
     17       3.8434      0.00000
     18       4.0003      0.00000
     19       4.3983      0.00000
     20       4.8870      0.00000

 k-point    23 :       0.5000    0.2500    0.1250
  band No.  band energies     occupation 
      1     -25.8324      2.00000
      2     -25.8264      2.00000
      3     -21.3301      2.00000
      4     -10.0923      2.00000
      5     -10.0382      2.00000
      6     -10.0270      2.00000
      7      -9.9647      2.00000
      8      -9.9349      2.00000
      9      -9.9037      2.00000
     10      -8.1565      2.00000
     11      -8.1187      2.00000
     12      -8.1056      2.00000
     13      -5.1900      2.00000
     14       0.9746      2.00000
     15       1.5048      2.00000
     16       1.5883      2.00000
     17       4.0072      0.00000
     18       4.2995      0.00000
     19       4.6229      0.00000
     20       4.9339      0.00000

 k-point    24 :      -0.3750    0.2500    0.1250
  band No.  band energies     occupation 
      1     -25.8294      2.00000
      2     -25.8293      2.00000
      3     -21.3303      2.00000
      4     -10.0970      2.00000
      5     -10.0445      2.00000
      6     -10.0120      2.00000
      7      -9.9861      2.00000
      8      -9.9183      2.00000
      9      -9.9112      2.00000
     10      -8.1453      2.00000
     11      -8.1262      2.00000
     12      -8.1019      2.00000
     13      -5.1789      2.00000
     14       1.0242      2.00000
     15       1.4116      2.00000
     16       1.5619      2.00000
     17       4.2382      0.00000
     18       4.2602      0.00000
     19       4.7244      0.00000
     20       5.0555      0.00000

 k-point    25 :       0.5000    0.3750    0.1250
  band No.  band energies     occupation 
      1     -25.8326      2.00000
      2     -25.8262      2.00000
      3     -21.3303      2.00000
      4     -10.1119      2.00000
      5     -10.0726      2.00000
      6     -10.0494      2.00000
      7      -9.9307      2.00000
      8      -9.9028      2.00000
      9      -9.8944      2.00000
     10      -8.1782      2.00000
     11      -8.1055      2.00000
     12      -8.0950      2.00000
     13      -5.1900      2.00000
     14       0.9893      2.00000
     15       1.6451      2.00000
     16       1.6705      2.00000
     17       3.6417      0.00000
     18       4.0559      0.00000
     19       4.7436      0.00000
     20       4.8344      0.00000

 k-point    26 :      -0.3750    0.3750    0.1250
  band No.  band energies     occupation 
      1     -25.8305      2.00000
      2     -25.8281      2.00000
      3     -21.3305      2.00000
      4     -10.1263      2.00000
      5     -10.0595      2.00000
      6     -10.0376      2.00000
      7      -9.9635      2.00000
      8      -9.8961      2.00000
      9      -9.8879      2.00000
     10      -8.1590      2.00000
     11      -8.1189      2.00000
     12      -8.0918      2.00000
     13      -5.1813      2.00000
     14       1.1535      2.00000
     15       1.4162      2.00000
     16       1.6202      2.00000
     17       3.8877      0.00000
     18       4.0532      0.00000
     19       4.6738      0.00000
     20       4.9885      0.00000

 k-point    27 :      -0.2500    0.3750    0.1250
  band No.  band energies     occupation 
      1     -25.8303      2.00000
      2     -25.8284      2.00000
      3     -21.3304      2.00000
      4     -10.1195      2.00000
      5     -10.0496      2.00000
      6     -10.0016      2.00000
      7     -10.0014      2.00000
      8      -9.9108      2.00000
      9      -9.8876      2.00000
     10      -8.1395      2.00000
     11      -8.1348      2.00000
     12      -8.0965      2.00000
     13      -5.1810      2.00000
     14       1.1520      2.00000
     15       1.3734      2.00000
     16       1.5705      2.00000
     17       4.0610      0.00000
     18       4.3453      0.00000
     19       4.3534      0.00000
     20       5.0933      0.00000

 k-point    28 :      -0.3750    0.5000    0.1250
  band No.  band energies     occupation 
      1     -25.8315      2.00000
      2     -25.8271      2.00000
      3     -21.3306      2.00000
      4     -10.1296      2.00000
      5     -10.0821      2.00000
      6     -10.0626      2.00000
      7      -9.9268      2.00000
      8      -9.8898      2.00000
      9      -9.8781      2.00000
     10      -8.1818      2.00000
     11      -8.1016      2.00000
     12      -8.0871      2.00000
     13      -5.1844      2.00000
     14       1.1037      2.00000
     15       1.6163      2.00000
     16       1.6906      2.00000
     17       3.5103      0.00000
     18       3.8272      0.00000
     19       4.9574      0.00000
     20       4.9777      0.00000

 k-point    29 :      -0.2500    0.5000    0.2500
  band No.  band energies     occupation 
      1     -25.8293      2.00000
      2     -25.8293      2.00000
      3     -21.3307      2.00000
      4     -10.1405      2.00000
      5     -10.0515      2.00000
      6     -10.0067      2.00000
      7     -10.0067      2.00000
      8      -9.8851      2.00000
      9      -9.8829      2.00000
     10      -8.1397      2.00000
     11      -8.1397      2.00000
     12      -8.0874      2.00000
     13      -5.1804      2.00000
     14       1.3109      2.00000
     15       1.3109      2.00000
     16       1.5792      2.00000
     17       3.9039      0.00000
     18       4.2760      0.00000
     19       4.2760      0.00000
     20       4.9644      0.00000


--------------------------------------------------------------------------------------------------------


 soft charge-density along one line, spin component           1
         0         1         2         3         4         5         6         7         8         9
 total charge-density along one line
 
 pseudopotential strength for first ion, spin component:           1
 18.716  -4.909  -0.000  -0.000  -0.000   0.000   0.000   0.000
 -4.909   1.293   0.000   0.000   0.000  -0.000  -0.000  -0.000
 -0.000   0.000   2.455   0.000   0.000  -3.025  -0.000  -0.000
 -0.000   0.000   0.000   2.455   0.000  -0.000  -3.025  -0.000
 -0.000   0.000   0.000   0.000   2.455  -0.000  -0.000  -3.025
  0.000  -0.000  -3.025  -0.000  -0.000   3.699   0.000   0.000
  0.000  -0.000  -0.000  -3.025  -0.000   0.000   3.699   0.000
  0.000  -0.000  -0.000  -0.000  -3.025   0.000   0.000   3.699
  0.000  -0.000  -0.000   0.000  -0.000   0.000  -0.000   0.000
  0.000  -0.000  -0.000  -0.000   0.000   0.000   0.000  -0.000
 -0.000   0.000   0.000  -0.000   0.000  -0.000   0.000  -0.000
  0.000  -0.000   0.000  -0.000  -0.000  -0.000   0.000   0.000
  0.000  -0.000   0.000  -0.000  -0.000  -0.000   0.000   0.000
 total augmentation occupancy for first ion, spin component:           1
  1.988  -0.032   0.000   0.000   0.000  -0.000   0.000   0.000  -0.000  -0.000   0.000  -0.000   0.000
 -0.032   0.455  -0.000   0.000  -0.000  -0.000  -0.000  -0.000   0.000  -0.000   0.000   0.000   0.000
  0.000   0.000   2.009  -0.000   0.000   0.010   0.000   0.000   0.000  -0.000  -0.000  -0.000   0.000
  0.000   0.000  -0.000   2.009  -0.000   0.000   0.010  -0.000  -0.000   0.000   0.000  -0.000   0.000
  0.000   0.000   0.000  -0.000   2.009   0.000   0.000   0.010  -0.000   0.000   0.000  -0.000   0.000
 -0.000  -0.000   0.010  -0.000   0.000   0.013   0.000  -0.000   0.000   0.000   0.000  -0.000  -0.000
 -0.000   0.000  -0.000   0.010   0.000   0.000   0.013   0.000   0.000   0.000   0.000   0.000  -0.000
 -0.000   0.000   0.000   0.000   0.010  -0.000   0.000   0.013  -0.000   0.000  -0.000   0.000   0.000
 -0.000   0.000   0.000   0.000   0.000  -0.000  -0.000  -0.000   0.005  -0.000   0.000  -0.000  -0.000
 -0.000  -0.000   0.000  -0.000   0.000   0.000   0.000   0.000  -0.000   0.005   0.000  -0.000   0.000
 -0.000   0.000  -0.000   0.000   0.000   0.000   0.000  -0.000   0.000  -0.000   0.023   0.000   0.000
  0.000   0.000  -0.000  -0.000   0.000   0.000   0.000  -0.000  -0.000  -0.000   0.000   0.005   0.000
  0.000   0.000   0.000   0.000  -0.000  -0.000  -0.000   0.000   0.000  -0.000   0.000   0.000   0.023


------------------------ aborting loop because EDIFF is reached ----------------------------------------


    CHARGE:  cpu time    0.0485: real time    0.0485
    FORLOC:  cpu time    0.0081: real time    0.0081
    FORNL :  cpu time    0.0643: real time    0.0643
    STRESS:  cpu time    0.2519: real time    0.2520
    FORCOR:  cpu time    0.0907: real time    0.0907
    FORHAR:  cpu time    0.0247: real time    0.0247
    MIXING:  cpu time    0.0067: real time    0.0067
    OFIELD:  cpu time    0.0000: real time    0.0000

  FORCE on cell =-STRESS in cart. coord.  units (eV):
  Direction    XX          YY          ZZ          XY          YZ          ZX
  --------------------------------------------------------------------------------------
  Alpha Z    92.28859    92.28859    92.28859
  Ewald    -505.64093  -505.64093  -505.64093     0.00013     0.00013     0.00013
  Hartree   129.72195   129.72195   129.72195    -0.00000    -0.00000    -0.00000
  E(xc)    -118.20723  -118.20723  -118.20723     0.00000     0.00000     0.00000
  Local      25.50061    25.50061    25.50061    -0.00008    -0.00008    -0.00008
  n-local     4.56848     4.70290     3.19261     0.88054    -0.72121     0.49188
  augment   -32.32861   -32.32861   -32.32861     0.00000     0.00000     0.00000
  Kinetic   405.37158   404.96490   403.20550     1.72062    -1.46676     1.00679
  Fock        0.00000     0.00000     0.00000     0.00000     0.00000     0.00000
  -------------------------------------------------------------------------------------
  Total       0.00305     0.00305     0.00305     0.00000     0.00000    -0.00000
  in kB       0.02632     0.02632     0.02632     0.00000     0.00000    -0.00000
  external pressure =        0.03 kB  Pullay stress =        0.00 kB


 VOLUME and BASIS-vectors are now :
 -----------------------------------------------------------------------------
  energy-cutoff  :      520.00
  volume of cell :      185.54
      direct lattice vectors                 reciprocal lattice vectors
     0.000000000  4.526939575  4.526939575    -0.110449895  0.110449895  0.110449895
     4.526939575  0.000000000  4.526939575     0.110449895 -0.110449895  0.110449895
     4.526939575  4.526939575 -0.000000000     0.110449895  0.110449895 -0.110449895

  length of vectors
     6.402059343  6.402059343  6.402059343     0.191304830  0.191304830  0.191304830


 FORCES acting on ions
    electron-ion (+dipol)            ewald-force                    non-local-force                 convergence-correction
 -----------------------------------------------------------------------------------------------
   0.158E-02 0.158E-02 0.141E-02   0.382E-03 0.382E-03 0.382E-03   0.000E+00 -.720E-20 -.127E-20   0.155E-08 0.155E-08 0.544E-08
   -.209E-02 -.209E-02 -.221E-02   -.182E-03 -.182E-03 -.182E-03   0.260E-16 0.226E-16 0.195E-16   -.381E-06 -.381E-06 -.411E-06
   -.781E-03 -.781E-03 -.905E-03   0.587E-05 0.587E-05 0.587E-05   -.243E-16 -.208E-16 -.178E-16   -.187E-06 -.187E-06 -.218E-06
   -.761E-03 -.761E-03 -.710E-03   -.205E-03 -.205E-03 -.205E-03   -.593E-20 0.339E-20 0.254E-20   0.342E-07 0.342E-07 0.355E-07
 -----------------------------------------------------------------------------------------------
   -.205E-02 -.205E-02 -.241E-02   0.370E-15 -.155E-15 0.628E-16   0.173E-17 0.173E-17 0.174E-17   -.532E-06 -.532E-06 -.588E-06
 
 
 POSITION                                       TOTAL-FORCE (eV/Angst)
 -----------------------------------------------------------------------------------
      2.26346      2.26346      2.26346        -0.000000     -0.000000     -0.000000
     -0.00000     -0.00000     -0.00000         0.000000      0.000000      0.000000
      4.52694      4.52694      4.52694        -0.000000     -0.000000     -0.000000
      6.79041      6.79041      6.79041        -0.000000      0.000000      0.000000
 -----------------------------------------------------------------------------------
    total drift:                               -0.002049     -0.002049     -0.002415


--------------------------------------------------------------------------------------------------------



  FREE ENERGIE OF THE ION-ELECTRON SYSTEM (eV)
  ---------------------------------------------------
  free  energy   TOTEN  =        -8.26771601 eV

  energy  without entropy=       -8.26771601  energy(sigma->0) =       -8.26771601
 
 d Force = 0.0000000E+00[ 0.000E+00, 0.000E+00]  d Energy = 0.1841512E-03-0.184E-03
 d Force = 0.0000000E+00[ 0.000E+00, 0.000E+00]  d Ewald  =-0.2593348E+01 0.259E+01


--------------------------------------------------------------------------------------------------------


    POTLOK:  cpu time    0.0871: real time    0.0877


--------------------------------------------------------------------------------------------------------




--------------------------------------------------------------------------------------------------------


  
 reached required accuracy - stopping structural energy minimisation
     LOOP+:  cpu time    3.2129: real time    3.2248
    4ORBIT:  cpu time    0.0000: real time    0.0000

 total amount of memory used by VASP MPI-rank0    57184. kBytes
=======================================================================

   base      :      30000. kBytes
   nonl-proj :       6515. kBytes
   fftplans  :       4869. kBytes
   grid      :       9037. kBytes
   one-center:          8. kBytes
   wavefun   :       6755. kBytes
 
  
  
 General timing and accounting informations for this job:
 ========================================================
  
                  Total CPU time used (sec):       14.478
                            User time (sec):       14.100
                          System time (sec):        0.378
                         Elapsed time (sec):       14.615
  
                   Maximum memory used (kb):      115888.
                   Average memory used (kb):           0.
  
                          Minor page faults:        40267
                          Major page faults:            0
                 Voluntary context switches:          522
