 running on   28 total cores
 distrk:  each k-point on    7 cores,    4 groups
 distr:  one band on    7 cores,    1 groups
 using from now: INCAR     
 vasp.5.4.4.18Apr17-6-g9f103f2a35 (build Jun 23 2019 17:35:09) complex          
  
 POSCAR found type information on POSCAR  Cs Rb Sb
 POSCAR found :  3 types and       4 ions
 scaLAPACK will be used

 ----------------------------------------------------------------------------- 
|                                                                             |
|           W    W    AA    RRRRR   N    N  II  N    N   GGGG   !!!           |
|           W    W   A  A   R    R  NN   N  II  NN   N  G    G  !!!           |
|           W    W  A    A  R    R  N N  N  II  N N  N  G       !!!           |
|           W WW W  AAAAAA  RRRRR   N  N N  II  N  N N  G  GGG   !            |
|           WW  WW  A    A  R   R   N   NN  II  N   NN  G    G                |
|           W    W  A    A  R    R  N    N  II  N    N   GGGG   !!!           |
|                                                                             |
|      You have enabled k-point parallelism (KPAR>1).                         |
|      This developmental code was originally  written by Paul Kent at ORNL,  |
|      and carefully double checked in Vienna.                                |
|      GW as well as linear response parallelism added by Martijn Marsman     |
|      and Georg Kresse.                                                      |
|      Carefully verify results versus KPAR=1.                                |
|      Report problems to Paul Kent and Vienna.                               |
|                                                                             |
 ----------------------------------------------------------------------------- 

 LDA part: xc-table for Pade appr. of Perdew
 POSCAR, INCAR and KPOINTS ok, starting setup
 FFT: planning ...
 WAVECAR not read
 entering main loop
       N       E                     dE             d eps       ncg     rms          rms(c)
DAV:   1     0.228162914321E+03    0.22816E+03   -0.12816E+04  1160   0.133E+03
DAV:   2     0.106862206295E+02   -0.21748E+03   -0.21229E+03  1528   0.240E+02
DAV:   3    -0.899315704928E+01   -0.19679E+02   -0.19637E+02  1784   0.774E+01
DAV:   4    -0.947458442367E+01   -0.48143E+00   -0.48004E+00  1656   0.122E+01
DAV:   5    -0.948653891113E+01   -0.11954E-01   -0.11953E-01  1528   0.161E+00    0.431E+00
DAV:   6    -0.838990591608E+01    0.10966E+01   -0.20686E+00  1364   0.468E+00    0.305E+00
DAV:   7    -0.826435837598E+01    0.12555E+00   -0.12633E+00  1460   0.308E+00    0.169E+00
DAV:   8    -0.828465904372E+01   -0.20301E-01   -0.29499E-01  1296   0.159E+00    0.419E-01
DAV:   9    -0.826624570614E+01    0.18413E-01   -0.11818E-01  1344   0.898E-01    0.295E-01
DAV:  10    -0.826674511321E+01   -0.49941E-03   -0.93084E-03  1472   0.322E-01    0.117E-01
DAV:  11    -0.826706584153E+01   -0.32073E-03   -0.88758E-04  1360   0.171E-01    0.281E-02
DAV:  12    -0.826705826289E+01    0.75786E-05   -0.18878E-04  1116   0.379E-02    0.132E-02
DAV:  13    -0.826705823150E+01    0.31382E-07   -0.46141E-05  1128   0.259E-02
   1 F= -.82670582E+01 E0= -.82670582E+01  d E =-.826706E+01
 curvature:   0.00 expect dE= 0.000E+00 dE for cont linesearch  0.000E+00
 trial: gam= 0.00000 g(F)=  0.560E-39 g(S)=  0.623E-03 ort = 0.000E+00 (trialstep = 0.100E+01)
 search vector abs. value=  0.623E-03
 bond charge predicted
       N       E                     dE             d eps       ncg     rms          rms(c)
DAV:   1    -0.827108742766E+01   -0.40292E-02   -0.81756E-02  1196   0.158E+00    0.264E-01
DAV:   2    -0.826845333158E+01    0.26341E-02   -0.57569E-03  1400   0.445E-01    0.135E-01
DAV:   3    -0.826751018769E+01    0.94314E-03   -0.32996E-03  1268   0.305E-01    0.228E-02
DAV:   4    -0.826753218313E+01   -0.21995E-04   -0.27052E-04  1840   0.628E-02    0.179E-02
DAV:   5    -0.826753185806E+01    0.32506E-06   -0.78971E-06   832   0.173E-02
   2 F= -.82675319E+01 E0= -.82675319E+01  d E =-.473627E-03
 trial-energy change:   -0.000474  1 .order   -0.000473   -0.000623   -0.000324
 step:   2.0819(harm=  2.0819)  dis= 0.00000  next Energy=    -8.267707 (dE=-0.649E-03)
 bond charge predicted
       N       E                     dE             d eps       ncg     rms          rms(c)
DAV:   1    -0.827190246613E+01   -0.43703E-02   -0.95634E-02  1176   0.171E+00    0.287E-01
DAV:   2    -0.826879689782E+01    0.31056E-02   -0.66564E-03  1392   0.480E-01    0.147E-01
DAV:   3    -0.826768994214E+01    0.11070E-02   -0.38849E-03  1268   0.331E-01    0.248E-02
DAV:   4    -0.826771608510E+01   -0.26143E-04   -0.31734E-04  1832   0.687E-02    0.192E-02
DAV:   5    -0.826771600928E+01    0.75813E-07   -0.88266E-06   848   0.183E-02
   3 F= -.82677160E+01 E0= -.82677160E+01  d E =-.657778E-03
 curvature:  -1.04 expect dE=-0.350E-06 dE for cont linesearch -0.350E-06
 trial: gam=-0.02269 g(F)=  0.448E-38 g(S)=  0.336E-06 ort = 0.145E-04 (trialstep = 0.122E+01)
 search vector abs. value=  0.281E-09
 reached required accuracy - stopping structural energy minimisation
