<?xml version="1.0" encoding="ISO-8859-1"?>
<modeling>
 <generator>
  <i name="program" type="string">vasp </i>
  <i name="version" type="string">5.4.4.18Apr17-6-g9f103f2a35  </i>
  <i name="subversion" type="string">(build Jun 23 2019 17:35:09) complex            parallel </i>
  <i name="platform" type="string">LinuxIFC </i>
  <i name="date" type="string">2020 01 14 </i>
  <i name="time" type="string">23:21:00 </i>
 </generator>
 <incar>
  <i type="int" name="ISTART">     0</i>
  <i type="string" name="PREC">acc</i>
  <i type="string" name="ALGO"> Normal</i>
  <i type="int" name="ISPIN">     1</i>
  <i type="int" name="NELMIN">     5</i>
  <i type="int" name="IBRION">     2</i>
  <i name="EDIFF">      0.00001000</i>
  <i name="EDIFFG">     -0.00100000</i>
  <i type="int" name="NSW">   100</i>
  <i type="int" name="ISIF">     3</i>
  <i name="ENCUT">    520.00000000</i>
  <i type="logical" name="LREAL"> F  </i>
  <i type="logical" name="LPLANE"> T  </i>
  <i type="int" name="ISMEAR">     0</i>
  <i name="SIGMA">      0.05000000</i>
  <i type="logical" name="LWAVE"> F  </i>
  <i type="logical" name="LCHARG"> F  </i>
  <v type="int" name="KPOINT_BSE">    -1     0     0     0</v>
  <i type="string" name="GGA"> PE</i>
 </incar>
 <structure name="primitive_cell" >
  <crystal>
   <varray name="basis" >
    <v>       0.00000000       4.51207200       4.51207200 </v>
    <v>       4.51207200       0.00000000       4.51207200 </v>
    <v>       4.51207200       4.51207200       0.00000000 </v>
   </varray>
   <i name="volume">    183.72068631 </i>
   <varray name="rec_basis" >
    <v>      -0.11081383       0.11081383       0.11081383 </v>
    <v>       0.11081383      -0.11081383       0.11081383 </v>
    <v>       0.11081383       0.11081383      -0.11081383 </v>
   </varray>
  </crystal>
  <varray name="positions" >
   <v>       0.24999934       0.24999934       0.24999934 </v>
   <v>       0.00000000       0.00000000       0.00000000 </v>
   <v>       0.49999978       0.49999978       0.49999978 </v>
   <v>      -0.24999978      -0.24999978      -0.24999978 </v>
  </varray>
 </structure>
 <varray name="primitive_index" >
  <v type="int" >        1 </v>
  <v type="int" >        2 </v>
  <v type="int" >        3 </v>
  <v type="int" >        4 </v>
 </varray>
 <kpoints>
  <generation param="Gamma">
   <v type="int" name="divisions">       8        8        8 </v>
   <v name="usershift">      0.00000000       0.00000000       0.00000000 </v>
   <v name="genvec1">      0.12500000       0.00000000       0.00000000 </v>
   <v name="genvec2">      0.00000000       0.12500000       0.00000000 </v>
   <v name="genvec3">      0.00000000       0.00000000       0.12500000 </v>
   <v name="shift">      0.00000000       0.00000000       0.00000000 </v>
  </generation>
  <varray name="kpointlist" >
   <v>       0.00000000       0.00000000       0.00000000 </v>
   <v>       0.12500000       0.00000000       0.00000000 </v>
   <v>       0.25000000       0.00000000       0.00000000 </v>
   <v>       0.37500000       0.00000000       0.00000000 </v>
   <v>       0.50000000       0.00000000       0.00000000 </v>
   <v>       0.12500000       0.12500000       0.00000000 </v>
   <v>       0.25000000       0.12500000       0.00000000 </v>
   <v>       0.37500000       0.12500000       0.00000000 </v>
   <v>       0.50000000       0.12500000       0.00000000 </v>
   <v>      -0.37500000       0.12500000       0.00000000 </v>
   <v>      -0.25000000       0.12500000       0.00000000 </v>
   <v>      -0.12500000       0.12500000       0.00000000 </v>
   <v>       0.25000000       0.25000000       0.00000000 </v>
   <v>       0.37500000       0.25000000       0.00000000 </v>
   <v>       0.50000000       0.25000000       0.00000000 </v>
   <v>      -0.37500000       0.25000000       0.00000000 </v>
   <v>      -0.25000000       0.25000000       0.00000000 </v>
   <v>       0.37500000       0.37500000       0.00000000 </v>
   <v>       0.50000000       0.37500000       0.00000000 </v>
   <v>      -0.37500000       0.37500000       0.00000000 </v>
   <v>       0.50000000       0.50000000       0.00000000 </v>
   <v>       0.37500000       0.25000000       0.12500000 </v>
   <v>       0.50000000       0.25000000       0.12500000 </v>
   <v>      -0.37500000       0.25000000       0.12500000 </v>
   <v>       0.50000000       0.37500000       0.12500000 </v>
   <v>      -0.37500000       0.37500000       0.12500000 </v>
   <v>      -0.25000000       0.37500000       0.12500000 </v>
   <v>      -0.37500000       0.50000000       0.12500000 </v>
   <v>      -0.25000000       0.50000000       0.25000000 </v>
  </varray>
  <varray name="weights" >
   <v>       0.00195312 </v>
   <v>       0.01562500 </v>
   <v>       0.01562500 </v>
   <v>       0.01562500 </v>
   <v>       0.00781250 </v>
   <v>       0.01171875 </v>
   <v>       0.04687500 </v>
   <v>       0.04687500 </v>
   <v>       0.04687500 </v>
   <v>       0.04687500 </v>
   <v>       0.04687500 </v>
   <v>       0.02343750 </v>
   <v>       0.01171875 </v>
   <v>       0.04687500 </v>
   <v>       0.04687500 </v>
   <v>       0.04687500 </v>
   <v>       0.02343750 </v>
   <v>       0.01171875 </v>
   <v>       0.04687500 </v>
   <v>       0.02343750 </v>
   <v>       0.00585938 </v>
   <v>       0.04687500 </v>
   <v>       0.09375000 </v>
   <v>       0.04687500 </v>
   <v>       0.04687500 </v>
   <v>       0.09375000 </v>
   <v>       0.04687500 </v>
   <v>       0.02343750 </v>
   <v>       0.01171875 </v>
  </varray>
 </kpoints>
 <parameters>
  <separator name="general" >
   <i type="string" name="SYSTEM">unknown system</i>
   <i type="logical" name="LCOMPAT"> F  </i>
  </separator>
  <separator name="electronic" >
   <i type="string" name="PREC">acc</i>
   <i name="ENMAX">    520.00000000</i>
   <i name="ENAUG">    423.86100000</i>
   <i name="EDIFF">      0.00001000</i>
   <i type="int" name="IALGO">    38</i>
   <i type="int" name="IWAVPR">    11</i>
   <i type="int" name="NBANDS">    20</i>
   <i name="NELECT">     32.00000000</i>
   <i type="int" name="TURBO">     0</i>
   <i type="int" name="IRESTART">     0</i>
   <i type="int" name="NREBOOT">     0</i>
   <i type="int" name="NMIN">     0</i>
   <i name="EREF">      0.00000000</i>
   <separator name="electronic smearing" >
    <i type="int" name="ISMEAR">     0</i>
    <i name="SIGMA">      0.05000000</i>
    <i name="KSPACING">      0.50000000</i>
    <i type="logical" name="KGAMMA"> T  </i>
   </separator>
   <separator name="electronic projectors" >
    <i type="logical" name="LREAL"> F  </i>
    <v name="ROPT">      0.00000000      0.00000000      0.00000000</v>
    <i type="int" name="LMAXPAW">  -100</i>
    <i type="int" name="LMAXMIX">     2</i>
    <i type="logical" name="NLSPLINE"> F  </i>
   </separator>
   <separator name="electronic startup" >
    <i type="int" name="ISTART">     0</i>
    <i type="int" name="ICHARG">     2</i>
    <i type="int" name="INIWAV">     1</i>
   </separator>
   <separator name="electronic spin" >
    <i type="int" name="ISPIN">     1</i>
    <i type="logical" name="LNONCOLLINEAR"> F  </i>
    <v name="MAGMOM">      1.00000000      1.00000000      1.00000000      1.00000000</v>
    <i name="NUPDOWN">     -1.00000000</i>
    <i type="logical" name="LSORBIT"> F  </i>
    <v name="SAXIS">      0.00000000      0.00000000      1.00000000</v>
    <i type="logical" name="LSPIRAL"> F  </i>
    <v name="QSPIRAL">      0.00000000      0.00000000      0.00000000</v>
    <i type="logical" name="LZEROZ"> F  </i>
   </separator>
   <separator name="electronic exchange-correlation" >
    <i type="logical" name="LASPH"> F  </i>
    <i type="logical" name="LMETAGGA"> F  </i>
   </separator>
   <separator name="electronic convergence" >
    <i type="int" name="NELM">    60</i>
    <i type="int" name="NELMDL">    -5</i>
    <i type="int" name="NELMIN">     5</i>
    <i name="ENINI">    520.00000000</i>
    <separator name="electronic convergence detail" >
     <i type="logical" name="LDIAG"> T  </i>
     <i type="logical" name="LSUBROT"> F  </i>
     <i name="WEIMIN">      0.00100000</i>
     <i name="EBREAK">      0.00000013</i>
     <i name="DEPER">      0.30000000</i>
     <i type="int" name="NRMM">     4</i>
     <i name="TIME">      0.40000000</i>
    </separator>
   </separator>
   <separator name="electronic mixer" >
    <i name="AMIX">      0.40000000</i>
    <i name="BMIX">      1.00000000</i>
    <i name="AMIN">      0.10000000</i>
    <i name="AMIX_MAG">      1.60000000</i>
    <i name="BMIX_MAG">      1.00000000</i>
    <separator name="electronic mixer details" >
     <i type="int" name="IMIX">     4</i>
     <i type="logical" name="MIXFIRST"> F  </i>
     <i type="int" name="MAXMIX">   -45</i>
     <i name="WC">    100.00000000</i>
     <i type="int" name="INIMIX">     1</i>
     <i type="int" name="MIXPRE">     1</i>
     <i type="int" name="MREMOVE">     5</i>
    </separator>
   </separator>
   <separator name="electronic dipolcorrection" >
    <i type="logical" name="LDIPOL"> F  </i>
    <i type="logical" name="LMONO"> F  </i>
    <i type="int" name="IDIPOL">     0</i>
    <i name="EPSILON">      1.00000000</i>
    <v name="DIPOL">   -100.00000000   -100.00000000   -100.00000000</v>
    <i name="EFIELD">      0.00000000</i>
   </separator>
  </separator>
  <separator name="grids" >
   <i type="int" name="NGX">    48</i>
   <i type="int" name="NGY">    48</i>
   <i type="int" name="NGZ">    48</i>
   <i type="int" name="NGXF">    96</i>
   <i type="int" name="NGYF">    96</i>
   <i type="int" name="NGZF">    96</i>
   <i type="logical" name="ADDGRID"> F  </i>
  </separator>
  <separator name="ionic" >
   <i type="int" name="NSW">   100</i>
   <i type="int" name="IBRION">     2</i>
   <i type="int" name="MDALGO">     0</i>
   <i type="int" name="ISIF">     3</i>
   <i name="PSTRESS">      0.00000000</i>
   <i name="EDIFFG">     -0.00100000</i>
   <i type="int" name="NFREE">     1</i>
   <i name="POTIM">      0.50000000</i>
   <i name="SMASS">     -3.00000000</i>
   <i name="SCALEE">      1.00000000</i>
  </separator>
  <separator name="ionic md" >
   <i name="TEBEG">      0.00010000</i>
   <i name="TEEND">      0.00010000</i>
   <i type="int" name="NBLOCK">     1</i>
   <i type="int" name="KBLOCK">   100</i>
   <i type="int" name="NPACO">   256</i>
   <i name="APACO">     16.00000000</i>
  </separator>
  <separator name="symmetry" >
   <i type="int" name="ISYM">     2</i>
   <i name="SYMPREC">      0.00001000</i>
  </separator>
  <separator name="dos" >
   <i type="int" name="LORBIT">     0</i>
   <v name="RWIGS">     -1.00000000     -1.00000000     -1.00000000</v>
   <i type="int" name="NEDOS">   301</i>
   <i name="EMIN">     10.00000000</i>
   <i name="EMAX">    -10.00000000</i>
   <i name="EFERMI">      0.00000000</i>
  </separator>
  <separator name="writing" >
   <i type="int" name="NWRITE">     2</i>
   <i type="logical" name="LWAVE"> F  </i>
   <i type="logical" name="LDOWNSAMPLE"> F  </i>
   <i type="logical" name="LCHARG"> F  </i>
   <i type="logical" name="LPARD"> F  </i>
   <i type="logical" name="LVTOT"> F  </i>
   <i type="logical" name="LVHAR"> F  </i>
   <i type="logical" name="LELF"> F  </i>
   <i type="logical" name="LOPTICS"> F  </i>
   <v name="STM">      0.00000000      0.00000000      0.00000000      0.00000000      0.00000000      0.00000000      0.00000000</v>
  </separator>
  <separator name="performance" >
   <i type="int" name="NPAR">     1</i>
   <i type="int" name="NSIM">     4</i>
   <i type="int" name="NBLK">    -1</i>
   <i type="logical" name="LPLANE"> T  </i>
   <i type="logical" name="LSCALAPACK"> T  </i>
   <i type="logical" name="LSCAAWARE"> F  </i>
   <i type="logical" name="LSCALU"> F  </i>
   <i type="logical" name="LASYNC"> F  </i>
   <i type="logical" name="LORBITALREAL"> F  </i>
  </separator>
  <separator name="miscellaneous" >
   <i type="int" name="IDIOT">     3</i>
   <i type="int" name="ISPECIAL">     0</i>
   <i type="logical" name="LMUSIC"> F  </i>
   <v name="POMASS">    132.90000000     85.46800000    121.75000000</v>
   <v name="DARWINR">      0.00000000      0.00000000      0.00000000</v>
   <v name="DARWINV">      1.00000000      1.00000000      1.00000000</v>
   <i type="logical" name="LCORR"> T  </i>
  </separator>
  <i type="logical" name="GGA_COMPAT"> T  </i>
  <i type="logical" name="LBERRY"> F  </i>
  <i type="int" name="ICORELEVEL">     0</i>
  <i type="logical" name="LDAU"> F  </i>
  <i type="int" name="I_CONSTRAINED_M">     0</i>
  <separator name="electronic exchange-correlation" >
   <i type="string" name="GGA">PE</i>
   <i type="int" name="VOSKOWN">     0</i>
   <i type="logical" name="LHFCALC"> F  </i>
   <i type="string" name="PRECFOCK"></i>
   <i type="logical" name="LSYMGRAD"> F  </i>
   <i type="logical" name="LHFONE"> F  </i>
   <i type="logical" name="LRHFCALC"> F  </i>
   <i type="logical" name="LTHOMAS"> F  </i>
   <i type="logical" name="LMODELHF"> F  </i>
   <i name="ENCUT4O">     -1.00000000</i>
   <i type="int" name="EXXOEP">     0</i>
   <i type="int" name="FOURORBIT">     0</i>
   <i name="AEXX">      0.00000000</i>
   <i name="HFALPHA">      0.00000000</i>
   <i name="MCALPHA">      0.00000000</i>
   <i name="ALDAX">      1.00000000</i>
   <i name="AGGAX">      1.00000000</i>
   <i name="ALDAC">      1.00000000</i>
   <i name="AGGAC">      1.00000000</i>
   <i type="int" name="NKREDX">     1</i>
   <i type="int" name="NKREDY">     1</i>
   <i type="int" name="NKREDZ">     1</i>
   <i type="logical" name="SHIFTRED"> F  </i>
   <i type="logical" name="ODDONLY"> F  </i>
   <i type="logical" name="EVENONLY"> F  </i>
   <i type="int" name="LMAXFOCK">     0</i>
   <i type="int" name="NMAXFOCKAE">     0</i>
   <i type="logical" name="LFOCKAEDFT"> F  </i>
   <i name="HFSCREEN">      0.00000000</i>
   <i name="HFSCREENC">      0.00000000</i>
   <i type="int" name="NBANDSGWLOW">     0</i>
  </separator>
  <separator name="vdW DFT" >
   <i type="logical" name="LUSE_VDW"> F  </i>
   <i name="Zab_VDW">     -0.84910000</i>
   <i name="PARAM1">      0.12340000</i>
   <i name="PARAM2">      1.00000000</i>
   <i name="PARAM3">      0.00000000</i>
  </separator>
  <separator name="model GW" >
   <i type="int" name="MODEL_GW">     0</i>
   <i name="MODEL_EPS0">     27.55810295</i>
   <i name="MODEL_ALPHA">      1.00000000</i>
  </separator>
  <separator name="linear response parameters" >
   <i type="logical" name="LEPSILON"> F  </i>
   <i type="logical" name="LRPA"> F  </i>
   <i type="logical" name="LNABLA"> F  </i>
   <i type="logical" name="LVEL"> F  </i>
   <i type="int" name="KINTER">     0</i>
   <i name="CSHIFT">      0.10000000</i>
   <i name="OMEGAMAX">     -1.00000000</i>
   <i name="DEG_THRESHOLD">      0.00200000</i>
   <i name="RTIME">     -0.10000000</i>
   <i name="WPLASMAI">      0.00000000</i>
   <v name="DFIELD">      0.00000000      0.00000000      0.00000000</v>
   <v name="WPLASMA">      0.00000000      0.00000000      0.00000000      0.00000000      0.00000000      0.00000000      0.00000000      0.00000000      0.00000000</v>
  </separator>
  <separator name="orbital magnetization" >
   <i type="logical" name="NUCIND"> F  </i>
   <v name="MAGPOS">      0.00000000      0.00000000      0.00000000</v>
   <i type="logical" name="LNICSALL"> T  </i>
   <i type="logical" name="ORBITALMAG"> F  </i>
   <i type="logical" name="LMAGBLOCH"> F  </i>
   <i type="logical" name="LCHIMAG"> F  </i>
   <i type="logical" name="LGAUGE"> T  </i>
   <i type="int" name="MAGATOM">     0</i>
   <v name="MAGDIPOL">      0.00000000      0.00000000      0.00000000</v>
   <v name="AVECCONST">      0.00000000      0.00000000      0.00000000</v>
  </separator>
  <separator name="response functions" >
   <i type="logical" name="LADDER"> F  </i>
   <i type="logical" name="LRPAFORCE"> F  </i>
   <i type="logical" name="LFXC"> F  </i>
   <i type="logical" name="LHARTREE"> T  </i>
   <i type="int" name="IBSE">     0</i>
   <v type="int" name="KPOINT">    -1     0     0     0</v>
   <i type="logical" name="LTCTE"> F  </i>
   <i type="logical" name="LTETE"> F  </i>
   <i type="logical" name="LTRIPLET"> F  </i>
   <i type="logical" name="LFXCEPS"> F  </i>
   <i type="logical" name="LFXHEG"> F  </i>
   <i type="int" name="NATURALO">     2</i>
   <i type="logical" name="L2ORDER"> F  </i>
   <i type="logical" name="LMP2LT"> F  </i>
   <i type="logical" name="LUSEW"> F  </i>
   <i name="ENCUTGW">     -2.00000000</i>
   <i name="ENCUTGWSOFT">     -2.00000000</i>
   <i name="ENCUTLF">     -1.00000000</i>
   <i type="int" name="LMAXMP2">    -1</i>
   <i name="SCISSOR">      0.00000000</i>
   <i type="int" name="NOMEGA">     0</i>
   <i type="int" name="NOMEGAR">     0</i>
   <i type="int" name="NBANDSGW">    -1</i>
   <i type="int" name="NBANDSO">    -1</i>
   <i type="int" name="NBANDSV">    -1</i>
   <i type="int" name="NELM">     1</i>
   <i type="int" name="NELMHF">     1</i>
   <i type="int" name="DIM">     3</i>
   <i type="int" name="ANTIRES">     0</i>
   <i name="OMEGAMAX">    -30.00000000</i>
   <i name="OMEGAMIN">    -30.00000000</i>
   <i name="OMEGATL">   -200.00000000</i>
   <i type="int" name="OMEGAGRID">   140</i>
   <i name="CSHIFT">     -0.10000000</i>
   <i type="logical" name="SELFENERGY"> F  </i>
   <i type="logical" name="LSPECTRAL"> F  </i>
   <i type="logical" name="LSPECTRALGW"> F  </i>
   <i type="logical" name="LSINGLES"> F  </i>
   <i type="logical" name="LFERMIGW"> F  </i>
   <i type="logical" name="ODDONLYGW"> F  </i>
   <i type="logical" name="EVENONLYGW"> F  </i>
   <i type="int" name="NKREDLFX">     1</i>
   <i type="int" name="NKREDLFY">     1</i>
   <i type="int" name="NKREDLFZ">     1</i>
   <i type="int" name="MAXMEM">  2800</i>
   <i type="int" name="TELESCOPE">     0</i>
   <i type="int" name="TAUPAR">     1</i>
   <i type="int" name="OMEGAPAR">    -1</i>
   <i name="LAMBDA">      1.00000000</i>
  </separator>
  <separator name="External order field" >
   <i name="OFIELD_KAPPA">      0.00000000</i>
   <v name="OFIELD_K">      0.00000000      0.00000000      0.00000000</v>
   <i name="OFIELD_Q6_NEAR">      0.00000000</i>
   <i name="OFIELD_Q6_FAR">      0.00000000</i>
   <i name="OFIELD_A">      0.00000000</i>
  </separator>
 </parameters>
 <atominfo>
  <atoms>       4 </atoms>
  <types>       3 </types>
  <array name="atoms" >
   <dimension dim="1">ion</dimension>
   <field type="string">element</field>
   <field type="int">atomtype</field>
   <set>
    <rc><c>Cs</c><c>   1</c></rc>
    <rc><c>Rb</c><c>   2</c></rc>
    <rc><c>Rb</c><c>   2</c></rc>
    <rc><c>Sb</c><c>   3</c></rc>
   </set>
  </array>
  <array name="atomtypes" >
   <dimension dim="1">type</dimension>
   <field type="int">atomspertype</field>
   <field type="string">element</field>
   <field>mass</field>
   <field>valence</field>
   <field type="string">pseudopotential</field>
   <set>
    <rc><c>   1</c><c>Cs</c><c>    132.90000000</c><c>      9.00000000</c><c>  PAW_PBE Cs_sv 08Apr2002               </c></rc>
    <rc><c>   2</c><c>Rb</c><c>     85.46800000</c><c>      9.00000000</c><c>  PAW_PBE Rb_sv 06Sep2000               </c></rc>
    <rc><c>   1</c><c>Sb</c><c>    121.75000000</c><c>      5.00000000</c><c>  PAW_PBE Sb 06Sep2000                  </c></rc>
   </set>
  </array>
 </atominfo>
 <structure name="initialpos" >
  <crystal>
   <varray name="basis" >
    <v>       0.00000000       4.51207200       4.51207200 </v>
    <v>       4.51207200       0.00000000       4.51207200 </v>
    <v>       4.51207200       4.51207200       0.00000000 </v>
   </varray>
   <i name="volume">    183.72068631 </i>
   <varray name="rec_basis" >
    <v>      -0.11081383       0.11081383       0.11081383 </v>
    <v>       0.11081383      -0.11081383       0.11081383 </v>
    <v>       0.11081383       0.11081383      -0.11081383 </v>
   </varray>
  </crystal>
  <varray name="positions" >
   <v>       0.24999934       0.24999934       0.24999934 </v>
   <v>       0.00000000       0.00000000       0.00000000 </v>
   <v>       0.49999978       0.49999978       0.49999978 </v>
   <v>       0.75000022       0.75000022       0.75000022 </v>
  </varray>
 </structure>
 <calculation>
  <scstep>
   <time name="dav">    0.38    0.38</time>
   <time name="total">    0.47    0.47</time>
   <energy>
    <i name="alphaZ">     93.20389027 </i>
    <i name="ewald">  -1521.91983869 </i>
    <i name="hartreedc">   -398.17613172 </i>
    <i name="XCdc">     22.24555310 </i>
    <i name="pawpsdc">   1598.61849123 </i>
    <i name="pawaedc">  -1528.63182258 </i>
    <i name="eentropy">     -0.00347085 </i>
    <i name="bandstr">    -67.81237733 </i>
    <i name="atom">   2030.63862089 </i>
    <i name="e_fr_energy">    228.16291432 </i>
    <i name="e_wo_entrp">    228.16638517 </i>
    <i name="e_0_energy">    228.16464975 </i>
   </energy>
  </scstep>
  <scstep>
   <time name="dav">    0.43    0.43</time>
   <time name="total">    0.43    0.43</time>
   <energy>
    <i name="e_fr_energy">     10.68622063 </i>
    <i name="e_wo_entrp">     10.68622063 </i>
    <i name="e_0_energy">     10.68622063 </i>
   </energy>
  </scstep>
  <scstep>
   <time name="dav">    0.50    0.50</time>
   <time name="total">    0.50    0.50</time>
   <energy>
    <i name="e_fr_energy">     -8.99315705 </i>
    <i name="e_wo_entrp">     -8.99315705 </i>
    <i name="e_0_energy">     -8.99315705 </i>
   </energy>
  </scstep>
  <scstep>
   <time name="dav">    0.46    0.46</time>
   <time name="total">    0.46    0.46</time>
   <energy>
    <i name="e_fr_energy">     -9.47458442 </i>
    <i name="e_wo_entrp">     -9.47458442 </i>
    <i name="e_0_energy">     -9.47458442 </i>
   </energy>
  </scstep>
  <scstep>
   <time name="dav">    0.44    0.44</time>
   <time name="total">    0.50    0.50</time>
   <energy>
    <i name="e_fr_energy">     -9.48653891 </i>
    <i name="e_wo_entrp">     -9.48653891 </i>
    <i name="e_0_energy">     -9.48653891 </i>
   </energy>
  </scstep>
  <scstep>
   <time name="dav">    0.40    0.40</time>
   <time name="total">    0.55    0.55</time>
   <energy>
    <i name="e_fr_energy">     -8.38990592 </i>
    <i name="e_wo_entrp">     -8.38990592 </i>
    <i name="e_0_energy">     -8.38990592 </i>
   </energy>
  </scstep>
  <scstep>
   <time name="dav">    0.42    0.42</time>
   <time name="total">    0.56    0.56</time>
   <energy>
    <i name="e_fr_energy">     -8.26435838 </i>
    <i name="e_wo_entrp">     -8.26435838 </i>
    <i name="e_0_energy">     -8.26435838 </i>
   </energy>
  </scstep>
  <scstep>
   <time name="dav">    0.41    0.41</time>
   <time name="total">    0.55    0.56</time>
   <energy>
    <i name="e_fr_energy">     -8.28465904 </i>
    <i name="e_wo_entrp">     -8.28465904 </i>
    <i name="e_0_energy">     -8.28465904 </i>
   </energy>
  </scstep>
  <scstep>
   <time name="dav">    0.39    0.39</time>
   <time name="total">    0.53    0.53</time>
   <energy>
    <i name="e_fr_energy">     -8.26624571 </i>
    <i name="e_wo_entrp">     -8.26624571 </i>
    <i name="e_0_energy">     -8.26624571 </i>
   </energy>
  </scstep>
  <scstep>
   <time name="dav">    0.42    0.42</time>
   <time name="total">    0.56    0.56</time>
   <energy>
    <i name="e_fr_energy">     -8.26674511 </i>
    <i name="e_wo_entrp">     -8.26674511 </i>
    <i name="e_0_energy">     -8.26674511 </i>
   </energy>
  </scstep>
  <scstep>
   <time name="dav">    0.40    0.40</time>
   <time name="total">    0.54    0.54</time>
   <energy>
    <i name="e_fr_energy">     -8.26706584 </i>
    <i name="e_wo_entrp">     -8.26706584 </i>
    <i name="e_0_energy">     -8.26706584 </i>
   </energy>
  </scstep>
  <scstep>
   <time name="dav">    0.35    0.35</time>
   <time name="total">    0.49    0.49</time>
   <energy>
    <i name="e_fr_energy">     -8.26705826 </i>
    <i name="e_wo_entrp">     -8.26705826 </i>
    <i name="e_0_energy">     -8.26705826 </i>
   </energy>
  </scstep>
  <scstep>
   <time name="dav">    0.36    0.36</time>
   <time name="total">    0.45    0.45</time>
   <energy>
    <i name="alphaZ">     93.20389027 </i>
    <i name="ewald">  -1521.91983869 </i>
    <i name="hartreedc">   -386.68890823 </i>
    <i name="XCdc">     22.37729044 </i>
    <i name="pawpsdc">   1757.68497455 </i>
    <i name="pawaedc">  -1688.44346457 </i>
    <i name="eentropy">     -0.00000000 </i>
    <i name="bandstr">   -315.11962289 </i>
    <i name="atom">   2030.63862089 </i>
    <i name="e_fr_energy">     -8.26705823 </i>
    <i name="e_wo_entrp">     -8.26705823 </i>
    <i name="e_0_energy">     -8.26705823 </i>
   </energy>
  </scstep>
  <structure>
   <crystal>
    <varray name="basis" >
     <v>       0.00000000       4.51207200       4.51207200 </v>
     <v>       4.51207200       0.00000000       4.51207200 </v>
     <v>       4.51207200       4.51207200       0.00000000 </v>
    </varray>
    <i name="volume">    183.72068631 </i>
    <varray name="rec_basis" >
     <v>      -0.11081383       0.11081383       0.11081383 </v>
     <v>       0.11081383      -0.11081383       0.11081383 </v>
     <v>       0.11081383       0.11081383      -0.11081383 </v>
    </varray>
   </crystal>
   <varray name="positions" >
    <v>       0.24999934       0.24999934       0.24999934 </v>
    <v>       0.00000000       0.00000000       0.00000000 </v>
    <v>       0.49999978       0.49999978       0.49999978 </v>
    <v>       0.75000022       0.75000022       0.75000022 </v>
   </varray>
  </structure>
  <varray name="forces" >
   <v>      -0.00000000       0.00000000      -0.00000000 </v>
   <v>      -0.00000000      -0.00000000      -0.00000000 </v>
   <v>       0.00000000       0.00000000       0.00000000 </v>
   <v>       0.00000000       0.00000000      -0.00000000 </v>
  </varray>
  <varray name="stress" >
   <v>       1.14443968       0.00000000      -0.00000000 </v>
   <v>       0.00000000       1.14443968       0.00000000 </v>
   <v>       0.00000000       0.00000000       1.14443968 </v>
  </varray>
  <energy>
   <i name="e_fr_energy">     -8.26705823 </i>
   <i name="e_wo_entrp">     -8.26705823 </i>
   <i name="e_0_energy">     -0.00000000 </i>
  </energy>
  <time name="totalsc">    7.25    7.26</time>
 </calculation>
 <calculation>
  <scstep>
   <time name="dav">    0.36    0.37</time>
   <time name="total">    0.51    0.51</time>
   <energy>
    <i name="alphaZ">     92.76273287 </i>
    <i name="ewald">  -1519.51483068 </i>
    <i name="hartreedc">   -386.08066764 </i>
    <i name="XCdc">     22.26298335 </i>
    <i name="pawpsdc">   1757.71031494 </i>
    <i name="pawaedc">  -1688.46854315 </i>
    <i name="eentropy">     -0.00000000 </i>
    <i name="bandstr">   -317.58169801 </i>
    <i name="atom">   2030.63862089 </i>
    <i name="e_fr_energy">     -8.27108743 </i>
    <i name="e_wo_entrp">     -8.27108743 </i>
    <i name="e_0_energy">     -8.27108743 </i>
   </energy>
  </scstep>
  <scstep>
   <time name="dav">    0.41    0.41</time>
   <time name="total">    0.55    0.55</time>
   <energy>
    <i name="e_fr_energy">     -8.26845333 </i>
    <i name="e_wo_entrp">     -8.26845333 </i>
    <i name="e_0_energy">     -8.26845333 </i>
   </energy>
  </scstep>
  <scstep>
   <time name="dav">    0.39    0.39</time>
   <time name="total">    0.53    0.53</time>
   <energy>
    <i name="e_fr_energy">     -8.26751019 </i>
    <i name="e_wo_entrp">     -8.26751019 </i>
    <i name="e_0_energy">     -8.26751019 </i>
   </energy>
  </scstep>
  <scstep>
   <time name="dav">    0.49    0.49</time>
   <time name="total">    0.62    0.63</time>
   <energy>
    <i name="e_fr_energy">     -8.26753218 </i>
    <i name="e_wo_entrp">     -8.26753218 </i>
    <i name="e_0_energy">     -8.26753218 </i>
   </energy>
  </scstep>
  <scstep>
   <time name="dav">    0.28    0.28</time>
   <time name="total">    0.37    0.37</time>
   <energy>
    <i name="alphaZ">     92.76273287 </i>
    <i name="ewald">  -1519.51483068 </i>
    <i name="hartreedc">   -387.89470585 </i>
    <i name="XCdc">     22.35650057 </i>
    <i name="pawpsdc">   1756.21212145 </i>
    <i name="pawaedc">  -1686.96118337 </i>
    <i name="eentropy">     -0.00000000 </i>
    <i name="bandstr">   -315.86678775 </i>
    <i name="atom">   2030.63862089 </i>
    <i name="e_fr_energy">     -8.26753186 </i>
    <i name="e_wo_entrp">     -8.26753186 </i>
    <i name="e_0_energy">     -8.26753186 </i>
   </energy>
  </scstep>
  <structure>
   <crystal>
    <varray name="basis" >
     <v>       0.00000000       4.51921347       4.51921347 </v>
     <v>       4.51921347       0.00000000       4.51921347 </v>
     <v>       4.51921347       4.51921347      -0.00000000 </v>
    </varray>
    <i name="volume">    184.59441802 </i>
    <varray name="rec_basis" >
     <v>      -0.11063872       0.11063872       0.11063872 </v>
     <v>       0.11063872      -0.11063872       0.11063872 </v>
     <v>       0.11063872       0.11063872      -0.11063872 </v>
    </varray>
   </crystal>
   <varray name="positions" >
    <v>       0.24999934       0.24999934       0.24999934 </v>
    <v>      -0.00000000      -0.00000000      -0.00000000 </v>
    <v>       0.49999978       0.49999978       0.49999978 </v>
    <v>       0.75000022       0.75000022       0.75000022 </v>
   </varray>
  </structure>
  <varray name="forces" >
   <v>      -0.00000000       0.00000000      -0.00000000 </v>
   <v>      -0.00000000       0.00000000       0.00000000 </v>
   <v>       0.00000000       0.00000000      -0.00000000 </v>
   <v>       0.00000000      -0.00000000      -0.00000000 </v>
  </varray>
  <varray name="stress" >
   <v>       0.59190618      -0.00000000      -0.00000000 </v>
   <v>       0.00000000       0.59190618      -0.00000000 </v>
   <v>      -0.00000000       0.00000000       0.59190618 </v>
  </varray>
  <energy>
   <i name="e_fr_energy">     -8.26753186 </i>
   <i name="e_wo_entrp">     -8.26753186 </i>
   <i name="e_0_energy">     -0.00000000 </i>
  </energy>
  <time name="totalsc">    3.25    3.26</time>
 </calculation>
 <calculation>
  <scstep>
   <time name="dav">    0.37    0.37</time>
   <time name="total">    0.52    0.52</time>
   <energy>
    <i name="alphaZ">     92.28858994 </i>
    <i name="ewald">  -1516.92148236 </i>
    <i name="hartreedc">   -387.21028409 </i>
    <i name="XCdc">     22.23143542 </i>
    <i name="pawpsdc">   1755.72518179 </i>
    <i name="pawaedc">  -1686.48710620 </i>
    <i name="eentropy">     -0.00000000 </i>
    <i name="bandstr">   -318.53685786 </i>
    <i name="atom">   2030.63862089 </i>
    <i name="e_fr_energy">     -8.27190247 </i>
    <i name="e_wo_entrp">     -8.27190247 </i>
    <i name="e_0_energy">     -8.27190247 </i>
   </energy>
  </scstep>
  <scstep>
   <time name="dav">    0.42    0.42</time>
   <time name="total">    0.56    0.57</time>
   <energy>
    <i name="e_fr_energy">     -8.26879690 </i>
    <i name="e_wo_entrp">     -8.26879690 </i>
    <i name="e_0_energy">     -8.26879690 </i>
   </energy>
  </scstep>
  <scstep>
   <time name="dav">    0.39    0.39</time>
   <time name="total">    0.53    0.53</time>
   <energy>
    <i name="e_fr_energy">     -8.26768994 </i>
    <i name="e_wo_entrp">     -8.26768994 </i>
    <i name="e_0_energy">     -8.26768994 </i>
   </energy>
  </scstep>
  <scstep>
   <time name="dav">    0.49    0.49</time>
   <time name="total">    0.63    0.63</time>
   <energy>
    <i name="e_fr_energy">     -8.26771609 </i>
    <i name="e_wo_entrp">     -8.26771609 </i>
    <i name="e_0_energy">     -8.26771609 </i>
   </energy>
  </scstep>
  <scstep>
   <time name="dav">    0.29    0.29</time>
   <time name="total">    0.38    0.38</time>
   <energy>
    <i name="alphaZ">     92.28858994 </i>
    <i name="ewald">  -1516.92148236 </i>
    <i name="hartreedc">   -389.17926546 </i>
    <i name="XCdc">     22.33281705 </i>
    <i name="pawpsdc">   1753.99251349 </i>
    <i name="pawaedc">  -1684.74239872 </i>
    <i name="eentropy">     -0.00000000 </i>
    <i name="bandstr">   -316.67711085 </i>
    <i name="atom">   2030.63862089 </i>
    <i name="e_fr_energy">     -8.26771601 </i>
    <i name="e_wo_entrp">     -8.26771601 </i>
    <i name="e_0_energy">     -8.26771601 </i>
   </energy>
  </scstep>
  <structure>
   <crystal>
    <varray name="basis" >
     <v>       0.00000000       4.52693957       4.52693957 </v>
     <v>       4.52693957       0.00000000       4.52693957 </v>
     <v>       4.52693957       4.52693957      -0.00000000 </v>
    </varray>
    <i name="volume">    185.54279244 </i>
    <varray name="rec_basis" >
     <v>      -0.11044989       0.11044989       0.11044989 </v>
     <v>       0.11044989      -0.11044989       0.11044989 </v>
     <v>       0.11044989       0.11044989      -0.11044989 </v>
    </varray>
   </crystal>
   <varray name="positions" >
    <v>       0.24999934       0.24999934       0.24999934 </v>
    <v>      -0.00000000      -0.00000000      -0.00000000 </v>
    <v>       0.49999978       0.49999978       0.49999978 </v>
    <v>       0.75000022       0.75000022       0.75000022 </v>
   </varray>
  </structure>
  <varray name="forces" >
   <v>      -0.00000000      -0.00000000      -0.00000000 </v>
   <v>       0.00000000       0.00000000       0.00000000 </v>
   <v>      -0.00000000      -0.00000000      -0.00000000 </v>
   <v>      -0.00000000       0.00000000       0.00000000 </v>
  </varray>
  <varray name="stress" >
   <v>       0.02632412      -0.00000000      -0.00000000 </v>
   <v>       0.00000000       0.02632412      -0.00000000 </v>
   <v>       0.00000000       0.00000000       0.02632412 </v>
  </varray>
  <energy>
   <i name="e_fr_energy">     -8.26771601 </i>
   <i name="e_wo_entrp">     -8.26771601 </i>
   <i name="e_0_energy">     -0.00000000 </i>
  </energy>
  <time name="totalsc">    3.21    3.22</time>
  <eigenvalues>
   <array>
    <dimension dim="1">band</dimension>
    <dimension dim="2">kpoint</dimension>
    <dimension dim="3">spin</dimension>
    <field>eigene</field>
    <field>occ</field>
    <set>
     <set comment="spin 1">
      <set comment="kpoint 1">
       <r>  -25.8397    1.0000 </r>
       <r>  -25.8201    1.0000 </r>
       <r>  -21.3279    1.0000 </r>
       <r>  -10.0282    1.0000 </r>
       <r>  -10.0282    1.0000 </r>
       <r>  -10.0282    1.0000 </r>
       <r>   -9.9372    1.0000 </r>
       <r>   -9.9372    1.0000 </r>
       <r>   -9.9372    1.0000 </r>
       <r>   -8.1393    1.0000 </r>
       <r>   -8.1392    1.0000 </r>
       <r>   -8.1392    1.0000 </r>
       <r>   -5.3386    1.0000 </r>
       <r>    1.7257    1.0000 </r>
       <r>    1.7257    1.0000 </r>
       <r>    1.7257    1.0000 </r>
       <r>    2.4630    0.0000 </r>
       <r>    3.6940    0.0000 </r>
       <r>    3.6940    0.0000 </r>
       <r>    4.7512    0.0000 </r>
      </set>
      <set comment="kpoint 2">
       <r>  -25.8388    1.0000 </r>
       <r>  -25.8208    1.0000 </r>
       <r>  -21.3282    1.0000 </r>
       <r>  -10.0351    1.0000 </r>
       <r>  -10.0270    1.0000 </r>
       <r>  -10.0270    1.0000 </r>
       <r>   -9.9414    1.0000 </r>
       <r>   -9.9414    1.0000 </r>
       <r>   -9.9331    1.0000 </r>
       <r>   -8.1448    1.0000 </r>
       <r>   -8.1353    1.0000 </r>
       <r>   -8.1353    1.0000 </r>
       <r>   -5.3108    1.0000 </r>
       <r>    1.4046    1.0000 </r>
       <r>    1.6803    1.0000 </r>
       <r>    1.6803    1.0000 </r>
       <r>    2.9638    0.0000 </r>
       <r>    3.8784    0.0000 </r>
       <r>    3.8784    0.0000 </r>
       <r>    4.5905    0.0000 </r>
      </set>
      <set comment="kpoint 3">
       <r>  -25.8365    1.0000 </r>
       <r>  -25.8228    1.0000 </r>
       <r>  -21.3289    1.0000 </r>
       <r>  -10.0408    1.0000 </r>
       <r>  -10.0232    1.0000 </r>
       <r>  -10.0232    1.0000 </r>
       <r>   -9.9525    1.0000 </r>
       <r>   -9.9525    1.0000 </r>
       <r>   -9.9360    1.0000 </r>
       <r>   -8.1533    1.0000 </r>
       <r>   -8.1259    1.0000 </r>
       <r>   -8.1259    1.0000 </r>
       <r>   -5.2499    1.0000 </r>
       <r>    1.0668    1.0000 </r>
       <r>    1.5932    1.0000 </r>
       <r>    1.5932    1.0000 </r>
       <r>    3.7107    0.0000 </r>
       <r>    4.3512    0.0000 </r>
       <r>    4.3512    0.0000 </r>
       <r>    4.4279    0.0000 </r>
      </set>
      <set comment="kpoint 4">
       <r>  -25.8332    1.0000 </r>
       <r>  -25.8258    1.0000 </r>
       <r>  -21.3297    1.0000 </r>
       <r>  -10.0333    1.0000 </r>
       <r>  -10.0170    1.0000 </r>
       <r>  -10.0170    1.0000 </r>
       <r>   -9.9659    1.0000 </r>
       <r>   -9.9659    1.0000 </r>
       <r>   -9.9543    1.0000 </r>
       <r>   -8.1557    1.0000 </r>
       <r>   -8.1165    1.0000 </r>
       <r>   -8.1165    1.0000 </r>
       <r>   -5.1968    1.0000 </r>
       <r>    0.8776    1.0000 </r>
       <r>    1.5275    1.0000 </r>
       <r>    1.5275    1.0000 </r>
       <r>    4.1055    0.0000 </r>
       <r>    4.7788    0.0000 </r>
       <r>    4.7788    0.0000 </r>
       <r>    4.8492    0.0000 </r>
      </set>
      <set comment="kpoint 5">
       <r>  -25.8295    1.0000 </r>
       <r>  -25.8294    1.0000 </r>
       <r>  -21.3299    1.0000 </r>
       <r>  -10.0239    1.0000 </r>
       <r>  -10.0130    1.0000 </r>
       <r>  -10.0130    1.0000 </r>
       <r>   -9.9729    1.0000 </r>
       <r>   -9.9729    1.0000 </r>
       <r>   -9.9687    1.0000 </r>
       <r>   -8.1553    1.0000 </r>
       <r>   -8.1126    1.0000 </r>
       <r>   -8.1126    1.0000 </r>
       <r>   -5.1767    1.0000 </r>
       <r>    0.8150    1.0000 </r>
       <r>    1.5047    1.0000 </r>
       <r>    1.5047    1.0000 </r>
       <r>    4.4067    0.0000 </r>
       <r>    4.7910    0.0000 </r>
       <r>    4.8351    0.0000 </r>
       <r>    4.8351    0.0000 </r>
      </set>
      <set comment="kpoint 6">
       <r>  -25.8386    1.0000 </r>
       <r>  -25.8210    1.0000 </r>
       <r>  -21.3283    1.0000 </r>
       <r>  -10.0426    1.0000 </r>
       <r>  -10.0426    1.0000 </r>
       <r>  -10.0064    1.0000 </r>
       <r>   -9.9581    1.0000 </r>
       <r>   -9.9289    1.0000 </r>
       <r>   -9.9289    1.0000 </r>
       <r>   -8.1526    1.0000 </r>
       <r>   -8.1312    1.0000 </r>
       <r>   -8.1312    1.0000 </r>
       <r>   -5.3027    1.0000 </r>
       <r>    1.2670    1.0000 </r>
       <r>    1.7412    1.0000 </r>
       <r>    1.7412    1.0000 </r>
       <r>    2.9897    0.0000 </r>
       <r>    3.7980    0.0000 </r>
       <r>    4.1017    0.0000 </r>
       <r>    4.4420    0.0000 </r>
      </set>
      <set comment="kpoint 7">
       <r>  -25.8369    1.0000 </r>
       <r>  -25.8224    1.0000 </r>
       <r>  -21.3289    1.0000 </r>
       <r>  -10.0540    1.0000 </r>
       <r>  -10.0518    1.0000 </r>
       <r>   -9.9881    1.0000 </r>
       <r>   -9.9792    1.0000 </r>
       <r>   -9.9269    1.0000 </r>
       <r>   -9.9247    1.0000 </r>
       <r>   -8.1615    1.0000 </r>
       <r>   -8.1240    1.0000 </r>
       <r>   -8.1217    1.0000 </r>
       <r>   -5.2566    1.0000 </r>
       <r>    1.0372    1.0000 </r>
       <r>    1.6593    1.0000 </r>
       <r>    1.7095    1.0000 </r>
       <r>    3.5150    0.0000 </r>
       <r>    4.0719    0.0000 </r>
       <r>    4.1899    0.0000 </r>
       <r>    4.5886    0.0000 </r>
      </set>
      <set comment="kpoint 8">
       <r>  -25.8341    1.0000 </r>
       <r>  -25.8249    1.0000 </r>
       <r>  -21.3296    1.0000 </r>
       <r>  -10.0554    1.0000 </r>
       <r>  -10.0516    1.0000 </r>
       <r>  -10.0084    1.0000 </r>
       <r>   -9.9640    1.0000 </r>
       <r>   -9.9354    1.0000 </r>
       <r>   -9.9342    1.0000 </r>
       <r>   -8.1601    1.0000 </r>
       <r>   -8.1189    1.0000 </r>
       <r>   -8.1124    1.0000 </r>
       <r>   -5.2067    1.0000 </r>
       <r>    0.9247    1.0000 </r>
       <r>    1.5259    1.0000 </r>
       <r>    1.6272    1.0000 </r>
       <r>    3.9348    0.0000 </r>
       <r>    4.4129    0.0000 </r>
       <r>    4.5594    0.0000 </r>
       <r>    4.8480    0.0000 </r>
      </set>
      <set comment="kpoint 9">
       <r>  -25.8307    1.0000 </r>
       <r>  -25.8282    1.0000 </r>
       <r>  -21.3301    1.0000 </r>
       <r>  -10.0555    1.0000 </r>
       <r>  -10.0403    1.0000 </r>
       <r>  -10.0185    1.0000 </r>
       <r>   -9.9611    1.0000 </r>
       <r>   -9.9484    1.0000 </r>
       <r>   -9.9412    1.0000 </r>
       <r>   -8.1526    1.0000 </r>
       <r>   -8.1174    1.0000 </r>
       <r>   -8.1088    1.0000 </r>
       <r>   -5.1796    1.0000 </r>
       <r>    0.8913    1.0000 </r>
       <r>    1.4644    1.0000 </r>
       <r>    1.5489    1.0000 </r>
       <r>    4.1950    0.0000 </r>
       <r>    4.6731    0.0000 </r>
       <r>    4.8089    0.0000 </r>
       <r>    4.9552    0.0000 </r>
      </set>
      <set comment="kpoint 10">
       <r>  -25.8317    1.0000 </r>
       <r>  -25.8272    1.0000 </r>
       <r>  -21.3299    1.0000 </r>
       <r>  -10.0641    1.0000 </r>
       <r>  -10.0195    1.0000 </r>
       <r>  -10.0118    1.0000 </r>
       <r>   -9.9758    1.0000 </r>
       <r>   -9.9661    1.0000 </r>
       <r>   -9.9244    1.0000 </r>
       <r>   -8.1509    1.0000 </r>
       <r>   -8.1175    1.0000 </r>
       <r>   -8.1129    1.0000 </r>
       <r>   -5.1850    1.0000 </r>
       <r>    0.9038    1.0000 </r>
       <r>    1.5037    1.0000 </r>
       <r>    1.5147    1.0000 </r>
       <r>    4.1798    0.0000 </r>
       <r>    4.5616    0.0000 </r>
       <r>    4.7814    0.0000 </r>
       <r>    4.8862    0.0000 </r>
      </set>
      <set comment="kpoint 11">
       <r>  -25.8350    1.0000 </r>
       <r>  -25.8241    1.0000 </r>
       <r>  -21.3294    1.0000 </r>
       <r>  -10.0645    1.0000 </r>
       <r>  -10.0224    1.0000 </r>
       <r>   -9.9969    1.0000 </r>
       <r>   -9.9816    1.0000 </r>
       <r>   -9.9603    1.0000 </r>
       <r>   -9.9161    1.0000 </r>
       <r>   -8.1545    1.0000 </r>
       <r>   -8.1224    1.0000 </r>
       <r>   -8.1195    1.0000 </r>
       <r>   -5.2212    1.0000 </r>
       <r>    0.9760    1.0000 </r>
       <r>    1.5107    1.0000 </r>
       <r>    1.6417    1.0000 </r>
       <r>    3.8693    0.0000 </r>
       <r>    4.3124    0.0000 </r>
       <r>    4.5457    0.0000 </r>
       <r>    4.7283    0.0000 </r>
      </set>
      <set comment="kpoint 12">
       <r>  -25.8376    1.0000 </r>
       <r>  -25.8219    1.0000 </r>
       <r>  -21.3286    1.0000 </r>
       <r>  -10.0520    1.0000 </r>
       <r>  -10.0297    1.0000 </r>
       <r>  -10.0085    1.0000 </r>
       <r>   -9.9628    1.0000 </r>
       <r>   -9.9434    1.0000 </r>
       <r>   -9.9219    1.0000 </r>
       <r>   -8.1522    1.0000 </r>
       <r>   -8.1317    1.0000 </r>
       <r>   -8.1263    1.0000 </r>
       <r>   -5.2738    1.0000 </r>
       <r>    1.1562    1.0000 </r>
       <r>    1.5783    1.0000 </r>
       <r>    1.7321    1.0000 </r>
       <r>    3.3689    0.0000 </r>
       <r>    4.0824    0.0000 </r>
       <r>    4.2749    0.0000 </r>
       <r>    4.3771    0.0000 </r>
      </set>
      <set comment="kpoint 13">
       <r>  -25.8360    1.0000 </r>
       <r>  -25.8231    1.0000 </r>
       <r>  -21.3293    1.0000 </r>
       <r>  -10.0733    1.0000 </r>
       <r>  -10.0733    1.0000 </r>
       <r>  -10.0086    1.0000 </r>
       <r>   -9.9530    1.0000 </r>
       <r>   -9.9123    1.0000 </r>
       <r>   -9.9123    1.0000 </r>
       <r>   -8.1783    1.0000 </r>
       <r>   -8.1122    1.0000 </r>
       <r>   -8.1122    1.0000 </r>
       <r>   -5.2355    1.0000 </r>
       <r>    0.9137    1.0000 </r>
       <r>    1.7762    1.0000 </r>
       <r>    1.7762    1.0000 </r>
       <r>    3.6092    0.0000 </r>
       <r>    3.8267    0.0000 </r>
       <r>    4.1084    0.0000 </r>
       <r>    4.9567    0.0000 </r>
      </set>
      <set comment="kpoint 14">
       <r>  -25.8342    1.0000 </r>
       <r>  -25.8248    1.0000 </r>
       <r>  -21.3299    1.0000 </r>
       <r>  -10.0848    1.0000 </r>
       <r>  -10.0826    1.0000 </r>
       <r>  -10.0331    1.0000 </r>
       <r>   -9.9268    1.0000 </r>
       <r>   -9.9125    1.0000 </r>
       <r>   -9.9099    1.0000 </r>
       <r>   -8.1808    1.0000 </r>
       <r>   -8.1061    1.0000 </r>
       <r>   -8.1032    1.0000 </r>
       <r>   -5.2054    1.0000 </r>
       <r>    0.9069    1.0000 </r>
       <r>    1.6829    1.0000 </r>
       <r>    1.7474    1.0000 </r>
       <r>    3.6576    0.0000 </r>
       <r>    4.0162    0.0000 </r>
       <r>    4.4502    0.0000 </r>
       <r>    4.8905    0.0000 </r>
      </set>
      <set comment="kpoint 15">
       <r>  -25.8316    1.0000 </r>
       <r>  -25.8271    1.0000 </r>
       <r>  -21.3303    1.0000 </r>
       <r>  -10.0944    1.0000 </r>
       <r>  -10.0767    1.0000 </r>
       <r>  -10.0359    1.0000 </r>
       <r>   -9.9346    1.0000 </r>
       <r>   -9.9186    1.0000 </r>
       <r>   -9.9053    1.0000 </r>
       <r>   -8.1658    1.0000 </r>
       <r>   -8.1106    1.0000 </r>
       <r>   -8.0997    1.0000 </r>
       <r>   -5.1845    1.0000 </r>
       <r>    1.0118    1.0000 </r>
       <r>    1.4741    1.0000 </r>
       <r>    1.6585    1.0000 </r>
       <r>    3.8076    0.0000 </r>
       <r>    4.3053    0.0000 </r>
       <r>    4.8044    0.0000 </r>
       <r>    4.8581    0.0000 </r>
      </set>
      <set comment="kpoint 16">
       <r>  -25.8299    1.0000 </r>
       <r>  -25.8288    1.0000 </r>
       <r>  -21.3303    1.0000 </r>
       <r>  -10.0991    1.0000 </r>
       <r>  -10.0560    1.0000 </r>
       <r>  -10.0157    1.0000 </r>
       <r>   -9.9680    1.0000 </r>
       <r>   -9.9363    1.0000 </r>
       <r>   -9.8945    1.0000 </r>
       <r>   -8.1440    1.0000 </r>
       <r>   -8.1246    1.0000 </r>
       <r>   -8.1038    1.0000 </r>
       <r>   -5.1799    1.0000 </r>
       <r>    1.0844    1.0000 </r>
       <r>    1.3770    1.0000 </r>
       <r>    1.5625    1.0000 </r>
       <r>    4.1363    0.0000 </r>
       <r>    4.2459    0.0000 </r>
       <r>    4.8013    0.0000 </r>
       <r>    4.8244    0.0000 </r>
      </set>
      <set comment="kpoint 17">
       <r>  -25.8327    1.0000 </r>
       <r>  -25.8262    1.0000 </r>
       <r>  -21.3300    1.0000 </r>
       <r>  -10.0889    1.0000 </r>
       <r>  -10.0246    1.0000 </r>
       <r>  -10.0013    1.0000 </r>
       <r>   -9.9864    1.0000 </r>
       <r>   -9.9607    1.0000 </r>
       <r>   -9.8972    1.0000 </r>
       <r>   -8.1447    1.0000 </r>
       <r>   -8.1242    1.0000 </r>
       <r>   -8.1132    1.0000 </r>
       <r>   -5.1932    1.0000 </r>
       <r>    0.9984    1.0000 </r>
       <r>    1.5027    1.0000 </r>
       <r>    1.5290    1.0000 </r>
       <r>    4.0791    0.0000 </r>
       <r>    4.3698    0.0000 </r>
       <r>    4.5199    0.0000 </r>
       <r>    4.7373    0.0000 </r>
      </set>
      <set comment="kpoint 18">
       <r>  -25.8335    1.0000 </r>
       <r>  -25.8253    1.0000 </r>
       <r>  -21.3302    1.0000 </r>
       <r>  -10.1012    1.0000 </r>
       <r>  -10.1012    1.0000 </r>
       <r>  -10.0592    1.0000 </r>
       <r>   -9.8986    1.0000 </r>
       <r>   -9.8978    1.0000 </r>
       <r>   -9.8978    1.0000 </r>
       <r>   -8.1956    1.0000 </r>
       <r>   -8.0942    1.0000 </r>
       <r>   -8.0941    1.0000 </r>
       <r>   -5.1964    1.0000 </r>
       <r>    0.9266    1.0000 </r>
       <r>    1.8076    1.0000 </r>
       <r>    1.8076    1.0000 </r>
       <r>    3.3229    0.0000 </r>
       <r>    3.9393    0.0000 </r>
       <r>    4.6192    0.0000 </r>
       <r>    4.8218    0.0000 </r>
      </set>
      <set comment="kpoint 19">
       <r>  -25.8322    1.0000 </r>
       <r>  -25.8264    1.0000 </r>
       <r>  -21.3305    1.0000 </r>
       <r>  -10.1121    1.0000 </r>
       <r>  -10.1028    1.0000 </r>
       <r>  -10.0633    1.0000 </r>
       <r>   -9.9048    1.0000 </r>
       <r>   -9.8989    1.0000 </r>
       <r>   -9.8831    1.0000 </r>
       <r>   -8.1900    1.0000 </r>
       <r>   -8.0941    1.0000 </r>
       <r>   -8.0906    1.0000 </r>
       <r>   -5.1875    1.0000 </r>
       <r>    1.0318    1.0000 </r>
       <r>    1.6766    1.0000 </r>
       <r>    1.7717    1.0000 </r>
       <r>    3.3672    0.0000 </r>
       <r>    3.8840    0.0000 </r>
       <r>    4.9257    0.0000 </r>
       <r>    4.9510    0.0000 </r>
      </set>
      <set comment="kpoint 20">
       <r>  -25.8306    1.0000 </r>
       <r>  -25.8280    1.0000 </r>
       <r>  -21.3306    1.0000 </r>
       <r>  -10.1161    1.0000 </r>
       <r>  -10.0866    1.0000 </r>
       <r>  -10.0419    1.0000 </r>
       <r>   -9.9332    1.0000 </r>
       <r>   -9.9124    1.0000 </r>
       <r>   -9.8809    1.0000 </r>
       <r>   -8.1673    1.0000 </r>
       <r>   -8.1075    1.0000 </r>
       <r>   -8.0946    1.0000 </r>
       <r>   -5.1815    1.0000 </r>
       <r>    1.1748    1.0000 </r>
       <r>    1.3942    1.0000 </r>
       <r>    1.6706    1.0000 </r>
       <r>    3.7232    0.0000 </r>
       <r>    3.9917    0.0000 </r>
       <r>    4.9119    0.0000 </r>
       <r>    5.1602    0.0000 </r>
      </set>
      <set comment="kpoint 21">
       <r>  -25.8324    1.0000 </r>
       <r>  -25.8261    1.0000 </r>
       <r>  -21.3306    1.0000 </r>
       <r>  -10.1122    1.0000 </r>
       <r>  -10.1122    1.0000 </r>
       <r>  -10.0801    1.0000 </r>
       <r>   -9.8922    1.0000 </r>
       <r>   -9.8922    1.0000 </r>
       <r>   -9.8758    1.0000 </r>
       <r>   -8.2006    1.0000 </r>
       <r>   -8.0869    1.0000 </r>
       <r>   -8.0869    1.0000 </r>
       <r>   -5.1885    1.0000 </r>
       <r>    1.0323    1.0000 </r>
       <r>    1.8194    1.0000 </r>
       <r>    1.8194    1.0000 </r>
       <r>    3.1356    0.0000 </r>
       <r>    3.7276    0.0000 </r>
       <r>    4.9351    0.0000 </r>
       <r>    5.2288    0.0000 </r>
      </set>
      <set comment="kpoint 22">
       <r>  -25.8351    1.0000 </r>
       <r>  -25.8240    1.0000 </r>
       <r>  -21.3295    1.0000 </r>
       <r>  -10.0776    1.0000 </r>
       <r>  -10.0491    1.0000 </r>
       <r>  -10.0086    1.0000 </r>
       <r>   -9.9593    1.0000 </r>
       <r>   -9.9398    1.0000 </r>
       <r>   -9.9075    1.0000 </r>
       <r>   -8.1662    1.0000 </r>
       <r>   -8.1154    1.0000 </r>
       <r>   -8.1146    1.0000 </r>
       <r>   -5.2202    1.0000 </r>
       <r>    0.9434    1.0000 </r>
       <r>    1.6004    1.0000 </r>
       <r>    1.6984    1.0000 </r>
       <r>    3.8434    0.0000 </r>
       <r>    4.0003    0.0000 </r>
       <r>    4.3983    0.0000 </r>
       <r>    4.8870    0.0000 </r>
      </set>
      <set comment="kpoint 23">
       <r>  -25.8324    1.0000 </r>
       <r>  -25.8264    1.0000 </r>
       <r>  -21.3301    1.0000 </r>
       <r>  -10.0923    1.0000 </r>
       <r>  -10.0382    1.0000 </r>
       <r>  -10.0270    1.0000 </r>
       <r>   -9.9647    1.0000 </r>
       <r>   -9.9349    1.0000 </r>
       <r>   -9.9037    1.0000 </r>
       <r>   -8.1565    1.0000 </r>
       <r>   -8.1187    1.0000 </r>
       <r>   -8.1056    1.0000 </r>
       <r>   -5.1900    1.0000 </r>
       <r>    0.9746    1.0000 </r>
       <r>    1.5048    1.0000 </r>
       <r>    1.5883    1.0000 </r>
       <r>    4.0072    0.0000 </r>
       <r>    4.2995    0.0000 </r>
       <r>    4.6229    0.0000 </r>
       <r>    4.9339    0.0000 </r>
      </set>
      <set comment="kpoint 24">
       <r>  -25.8294    1.0000 </r>
       <r>  -25.8293    1.0000 </r>
       <r>  -21.3303    1.0000 </r>
       <r>  -10.0970    1.0000 </r>
       <r>  -10.0445    1.0000 </r>
       <r>  -10.0120    1.0000 </r>
       <r>   -9.9861    1.0000 </r>
       <r>   -9.9183    1.0000 </r>
       <r>   -9.9112    1.0000 </r>
       <r>   -8.1453    1.0000 </r>
       <r>   -8.1262    1.0000 </r>
       <r>   -8.1019    1.0000 </r>
       <r>   -5.1789    1.0000 </r>
       <r>    1.0242    1.0000 </r>
       <r>    1.4116    1.0000 </r>
       <r>    1.5619    1.0000 </r>
       <r>    4.2382    0.0000 </r>
       <r>    4.2602    0.0000 </r>
       <r>    4.7244    0.0000 </r>
       <r>    5.0555    0.0000 </r>
      </set>
      <set comment="kpoint 25">
       <r>  -25.8326    1.0000 </r>
       <r>  -25.8262    1.0000 </r>
       <r>  -21.3303    1.0000 </r>
       <r>  -10.1119    1.0000 </r>
       <r>  -10.0726    1.0000 </r>
       <r>  -10.0494    1.0000 </r>
       <r>   -9.9307    1.0000 </r>
       <r>   -9.9028    1.0000 </r>
       <r>   -9.8944    1.0000 </r>
       <r>   -8.1782    1.0000 </r>
       <r>   -8.1055    1.0000 </r>
       <r>   -8.0950    1.0000 </r>
       <r>   -5.1900    1.0000 </r>
       <r>    0.9893    1.0000 </r>
       <r>    1.6451    1.0000 </r>
       <r>    1.6705    1.0000 </r>
       <r>    3.6417    0.0000 </r>
       <r>    4.0559    0.0000 </r>
       <r>    4.7436    0.0000 </r>
       <r>    4.8344    0.0000 </r>
      </set>
      <set comment="kpoint 26">
       <r>  -25.8305    1.0000 </r>
       <r>  -25.8281    1.0000 </r>
       <r>  -21.3305    1.0000 </r>
       <r>  -10.1263    1.0000 </r>
       <r>  -10.0595    1.0000 </r>
       <r>  -10.0376    1.0000 </r>
       <r>   -9.9635    1.0000 </r>
       <r>   -9.8961    1.0000 </r>
       <r>   -9.8879    1.0000 </r>
       <r>   -8.1590    1.0000 </r>
       <r>   -8.1189    1.0000 </r>
       <r>   -8.0918    1.0000 </r>
       <r>   -5.1813    1.0000 </r>
       <r>    1.1535    1.0000 </r>
       <r>    1.4162    1.0000 </r>
       <r>    1.6202    1.0000 </r>
       <r>    3.8877    0.0000 </r>
       <r>    4.0532    0.0000 </r>
       <r>    4.6738    0.0000 </r>
       <r>    4.9885    0.0000 </r>
      </set>
      <set comment="kpoint 27">
       <r>  -25.8303    1.0000 </r>
       <r>  -25.8284    1.0000 </r>
       <r>  -21.3304    1.0000 </r>
       <r>  -10.1195    1.0000 </r>
       <r>  -10.0496    1.0000 </r>
       <r>  -10.0016    1.0000 </r>
       <r>  -10.0014    1.0000 </r>
       <r>   -9.9108    1.0000 </r>
       <r>   -9.8876    1.0000 </r>
       <r>   -8.1395    1.0000 </r>
       <r>   -8.1348    1.0000 </r>
       <r>   -8.0965    1.0000 </r>
       <r>   -5.1810    1.0000 </r>
       <r>    1.1520    1.0000 </r>
       <r>    1.3734    1.0000 </r>
       <r>    1.5705    1.0000 </r>
       <r>    4.0610    0.0000 </r>
       <r>    4.3453    0.0000 </r>
       <r>    4.3534    0.0000 </r>
       <r>    5.0933    0.0000 </r>
      </set>
      <set comment="kpoint 28">
       <r>  -25.8315    1.0000 </r>
       <r>  -25.8271    1.0000 </r>
       <r>  -21.3306    1.0000 </r>
       <r>  -10.1296    1.0000 </r>
       <r>  -10.0821    1.0000 </r>
       <r>  -10.0626    1.0000 </r>
       <r>   -9.9268    1.0000 </r>
       <r>   -9.8898    1.0000 </r>
       <r>   -9.8781    1.0000 </r>
       <r>   -8.1818    1.0000 </r>
       <r>   -8.1016    1.0000 </r>
       <r>   -8.0871    1.0000 </r>
       <r>   -5.1844    1.0000 </r>
       <r>    1.1037    1.0000 </r>
       <r>    1.6163    1.0000 </r>
       <r>    1.6906    1.0000 </r>
       <r>    3.5103    0.0000 </r>
       <r>    3.8272    0.0000 </r>
       <r>    4.9574    0.0000 </r>
       <r>    4.9777    0.0000 </r>
      </set>
      <set comment="kpoint 29">
       <r>  -25.8293    1.0000 </r>
       <r>  -25.8293    1.0000 </r>
       <r>  -21.3307    1.0000 </r>
       <r>  -10.1405    1.0000 </r>
       <r>  -10.0515    1.0000 </r>
       <r>  -10.0067    1.0000 </r>
       <r>  -10.0067    1.0000 </r>
       <r>   -9.8851    1.0000 </r>
       <r>   -9.8829    1.0000 </r>
       <r>   -8.1397    1.0000 </r>
       <r>   -8.1397    1.0000 </r>
       <r>   -8.0874    1.0000 </r>
       <r>   -5.1804    1.0000 </r>
       <r>    1.3109    1.0000 </r>
       <r>    1.3109    1.0000 </r>
       <r>    1.5792    1.0000 </r>
       <r>    3.9039    0.0000 </r>
       <r>    4.2760    0.0000 </r>
       <r>    4.2760    0.0000 </r>
       <r>    4.9644    0.0000 </r>
      </set>
     </set>
    </set>
   </array>
  </eigenvalues>
  <separator name="orbital magnetization" >
   <v name="MAGDIPOLOUT">      0.00000000      0.00000000      0.00000000</v>
  </separator>
  <dos>
   <i name="efermi">      2.11871290 </i>
   <total>
    <array>
     <dimension dim="1">gridpoints</dimension>
     <dimension dim="2">spin</dimension>
     <field>energy</field>
     <field>total</field>
     <field>integrated</field>
     <set>
      <set comment="spin 1">
       <r>   -27.3931     0.0000     0.0000 </r>
       <r>   -27.2792     0.0000     0.0000 </r>
       <r>   -27.1652     0.0000     0.0000 </r>
       <r>   -27.0513     0.0000     0.0000 </r>
       <r>   -26.9374     0.0000     0.0000 </r>
       <r>   -26.8235     0.0000     0.0000 </r>
       <r>   -26.7096     0.0000     0.0000 </r>
       <r>   -26.5957     0.0000     0.0000 </r>
       <r>   -26.4817     0.0000     0.0000 </r>
       <r>   -26.3678     0.0000     0.0000 </r>
       <r>   -26.2539     0.0000     0.0000 </r>
       <r>   -26.1400     0.0000     0.0000 </r>
       <r>   -26.0261     0.0000     0.0000 </r>
       <r>   -25.9122     0.3525     0.0402 </r>
       <r>   -25.7982    28.0812     3.2391 </r>
       <r>   -25.6843     6.6786     3.9999 </r>
       <r>   -25.5704     0.0008     4.0000 </r>
       <r>   -25.4565     0.0000     4.0000 </r>
       <r>   -25.3426     0.0000     4.0000 </r>
       <r>   -25.2286     0.0000     4.0000 </r>
       <r>   -25.1147     0.0000     4.0000 </r>
       <r>   -25.0008     0.0000     4.0000 </r>
       <r>   -24.8869     0.0000     4.0000 </r>
       <r>   -24.7730     0.0000     4.0000 </r>
       <r>   -24.6591     0.0000     4.0000 </r>
       <r>   -24.5451     0.0000     4.0000 </r>
       <r>   -24.4312     0.0000     4.0000 </r>
       <r>   -24.3173     0.0000     4.0000 </r>
       <r>   -24.2034     0.0000     4.0000 </r>
       <r>   -24.0895     0.0000     4.0000 </r>
       <r>   -23.9756     0.0000     4.0000 </r>
       <r>   -23.8616     0.0000     4.0000 </r>
       <r>   -23.7477     0.0000     4.0000 </r>
       <r>   -23.6338     0.0000     4.0000 </r>
       <r>   -23.5199     0.0000     4.0000 </r>
       <r>   -23.4060     0.0000     4.0000 </r>
       <r>   -23.2920     0.0000     4.0000 </r>
       <r>   -23.1781     0.0000     4.0000 </r>
       <r>   -23.0642     0.0000     4.0000 </r>
       <r>   -22.9503     0.0000     4.0000 </r>
       <r>   -22.8364     0.0000     4.0000 </r>
       <r>   -22.7225     0.0000     4.0000 </r>
       <r>   -22.6085     0.0000     4.0000 </r>
       <r>   -22.4946     0.0000     4.0000 </r>
       <r>   -22.3807     0.0000     4.0000 </r>
       <r>   -22.2668     0.0000     4.0000 </r>
       <r>   -22.1529     0.0000     4.0000 </r>
       <r>   -22.0390     0.0000     4.0000 </r>
       <r>   -21.9250     0.0000     4.0000 </r>
       <r>   -21.8111     0.0000     4.0000 </r>
       <r>   -21.6972     0.0000     4.0000 </r>
       <r>   -21.5833     0.0000     4.0000 </r>
       <r>   -21.4694     0.0007     4.0001 </r>
       <r>   -21.3554     4.1332     4.4709 </r>
       <r>   -21.2415    13.3138     5.9876 </r>
       <r>   -21.1276     0.1088     6.0000 </r>
       <r>   -21.0137     0.0000     6.0000 </r>
       <r>   -20.8998     0.0000     6.0000 </r>
       <r>   -20.7859     0.0000     6.0000 </r>
       <r>   -20.6719     0.0000     6.0000 </r>
       <r>   -20.5580     0.0000     6.0000 </r>
       <r>   -20.4441     0.0000     6.0000 </r>
       <r>   -20.3302     0.0000     6.0000 </r>
       <r>   -20.2163     0.0000     6.0000 </r>
       <r>   -20.1024     0.0000     6.0000 </r>
       <r>   -19.9884     0.0000     6.0000 </r>
       <r>   -19.8745     0.0000     6.0000 </r>
       <r>   -19.7606     0.0000     6.0000 </r>
       <r>   -19.6467     0.0000     6.0000 </r>
       <r>   -19.5328     0.0000     6.0000 </r>
       <r>   -19.4188     0.0000     6.0000 </r>
       <r>   -19.3049     0.0000     6.0000 </r>
       <r>   -19.1910     0.0000     6.0000 </r>
       <r>   -19.0771     0.0000     6.0000 </r>
       <r>   -18.9632     0.0000     6.0000 </r>
       <r>   -18.8493     0.0000     6.0000 </r>
       <r>   -18.7353     0.0000     6.0000 </r>
       <r>   -18.6214     0.0000     6.0000 </r>
       <r>   -18.5075     0.0000     6.0000 </r>
       <r>   -18.3936     0.0000     6.0000 </r>
       <r>   -18.2797     0.0000     6.0000 </r>
       <r>   -18.1658     0.0000     6.0000 </r>
       <r>   -18.0518     0.0000     6.0000 </r>
       <r>   -17.9379     0.0000     6.0000 </r>
       <r>   -17.8240     0.0000     6.0000 </r>
       <r>   -17.7101     0.0000     6.0000 </r>
       <r>   -17.5962     0.0000     6.0000 </r>
       <r>   -17.4822     0.0000     6.0000 </r>
       <r>   -17.3683     0.0000     6.0000 </r>
       <r>   -17.2544     0.0000     6.0000 </r>
       <r>   -17.1405     0.0000     6.0000 </r>
       <r>   -17.0266     0.0000     6.0000 </r>
       <r>   -16.9127     0.0000     6.0000 </r>
       <r>   -16.7987     0.0000     6.0000 </r>
       <r>   -16.6848     0.0000     6.0000 </r>
       <r>   -16.5709     0.0000     6.0000 </r>
       <r>   -16.4570     0.0000     6.0000 </r>
       <r>   -16.3431     0.0000     6.0000 </r>
       <r>   -16.2292     0.0000     6.0000 </r>
       <r>   -16.1152     0.0000     6.0000 </r>
       <r>   -16.0013     0.0000     6.0000 </r>
       <r>   -15.8874     0.0000     6.0000 </r>
       <r>   -15.7735     0.0000     6.0000 </r>
       <r>   -15.6596     0.0000     6.0000 </r>
       <r>   -15.5456     0.0000     6.0000 </r>
       <r>   -15.4317     0.0000     6.0000 </r>
       <r>   -15.3178     0.0000     6.0000 </r>
       <r>   -15.2039     0.0000     6.0000 </r>
       <r>   -15.0900     0.0000     6.0000 </r>
       <r>   -14.9761     0.0000     6.0000 </r>
       <r>   -14.8621     0.0000     6.0000 </r>
       <r>   -14.7482     0.0000     6.0000 </r>
       <r>   -14.6343     0.0000     6.0000 </r>
       <r>   -14.5204     0.0000     6.0000 </r>
       <r>   -14.4065     0.0000     6.0000 </r>
       <r>   -14.2926     0.0000     6.0000 </r>
       <r>   -14.1786     0.0000     6.0000 </r>
       <r>   -14.0647     0.0000     6.0000 </r>
       <r>   -13.9508     0.0000     6.0000 </r>
       <r>   -13.8369     0.0000     6.0000 </r>
       <r>   -13.7230     0.0000     6.0000 </r>
       <r>   -13.6090     0.0000     6.0000 </r>
       <r>   -13.4951     0.0000     6.0000 </r>
       <r>   -13.3812     0.0000     6.0000 </r>
       <r>   -13.2673     0.0000     6.0000 </r>
       <r>   -13.1534     0.0000     6.0000 </r>
       <r>   -13.0395     0.0000     6.0000 </r>
       <r>   -12.9255     0.0000     6.0000 </r>
       <r>   -12.8116     0.0000     6.0000 </r>
       <r>   -12.6977     0.0000     6.0000 </r>
       <r>   -12.5838     0.0000     6.0000 </r>
       <r>   -12.4699     0.0000     6.0000 </r>
       <r>   -12.3560     0.0000     6.0000 </r>
       <r>   -12.2420     0.0000     6.0000 </r>
       <r>   -12.1281     0.0000     6.0000 </r>
       <r>   -12.0142     0.0000     6.0000 </r>
       <r>   -11.9003     0.0000     6.0000 </r>
       <r>   -11.7864     0.0000     6.0000 </r>
       <r>   -11.6724     0.0000     6.0000 </r>
       <r>   -11.5585     0.0000     6.0000 </r>
       <r>   -11.4446     0.0000     6.0000 </r>
       <r>   -11.3307     0.0000     6.0000 </r>
       <r>   -11.2168     0.0000     6.0000 </r>
       <r>   -11.1029     0.0000     6.0000 </r>
       <r>   -10.9889     0.0000     6.0000 </r>
       <r>   -10.8750     0.0000     6.0000 </r>
       <r>   -10.7611     0.0000     6.0000 </r>
       <r>   -10.6472     0.0000     6.0000 </r>
       <r>   -10.5333     0.0000     6.0000 </r>
       <r>   -10.4194     0.0000     6.0000 </r>
       <r>   -10.3054     0.0000     6.0000 </r>
       <r>   -10.1915     0.1589     6.0181 </r>
       <r>   -10.0776    16.6667     7.9167 </r>
       <r>    -9.9637    47.2179    13.2957 </r>
       <r>    -9.8498    39.3005    17.7727 </r>
       <r>    -9.7358     1.9951    18.0000 </r>
       <r>    -9.6219     0.0001    18.0000 </r>
       <r>    -9.5080     0.0000    18.0000 </r>
       <r>    -9.3941     0.0000    18.0000 </r>
       <r>    -9.2802     0.0000    18.0000 </r>
       <r>    -9.1663     0.0000    18.0000 </r>
       <r>    -9.0523     0.0000    18.0000 </r>
       <r>    -8.9384     0.0000    18.0000 </r>
       <r>    -8.8245     0.0000    18.0000 </r>
       <r>    -8.7106     0.0000    18.0000 </r>
       <r>    -8.5967     0.0000    18.0000 </r>
       <r>    -8.4827     0.0000    18.0000 </r>
       <r>    -8.3688     0.0000    18.0000 </r>
       <r>    -8.2549     0.1227    18.0140 </r>
       <r>    -8.1410    19.6184    20.2489 </r>
       <r>    -8.0271    32.5000    23.9512 </r>
       <r>    -7.9132     0.4286    24.0000 </r>
       <r>    -7.7992     0.0000    24.0000 </r>
       <r>    -7.6853     0.0000    24.0000 </r>
       <r>    -7.5714     0.0000    24.0000 </r>
       <r>    -7.4575     0.0000    24.0000 </r>
       <r>    -7.3436     0.0000    24.0000 </r>
       <r>    -7.2297     0.0000    24.0000 </r>
       <r>    -7.1157     0.0000    24.0000 </r>
       <r>    -7.0018     0.0000    24.0000 </r>
       <r>    -6.8879     0.0000    24.0000 </r>
       <r>    -6.7740     0.0000    24.0000 </r>
       <r>    -6.6601     0.0000    24.0000 </r>
       <r>    -6.5461     0.0000    24.0000 </r>
       <r>    -6.4322     0.0000    24.0000 </r>
       <r>    -6.3183     0.0000    24.0000 </r>
       <r>    -6.2044     0.0000    24.0000 </r>
       <r>    -6.0905     0.0000    24.0000 </r>
       <r>    -5.9766     0.0000    24.0000 </r>
       <r>    -5.8626     0.0000    24.0000 </r>
       <r>    -5.7487     0.0000    24.0000 </r>
       <r>    -5.6348     0.0000    24.0000 </r>
       <r>    -5.5209     0.0000    24.0000 </r>
       <r>    -5.4070     0.0022    24.0002 </r>
       <r>    -5.2931     0.6890    24.0787 </r>
       <r>    -5.1791    10.9958    25.3314 </r>
       <r>    -5.0652     5.8647    25.9994 </r>
       <r>    -4.9513     0.0049    26.0000 </r>
       <r>    -4.8374     0.0000    26.0000 </r>
       <r>    -4.7235     0.0000    26.0000 </r>
       <r>    -4.6095     0.0000    26.0000 </r>
       <r>    -4.4956     0.0000    26.0000 </r>
       <r>    -4.3817     0.0000    26.0000 </r>
       <r>    -4.2678     0.0000    26.0000 </r>
       <r>    -4.1539     0.0000    26.0000 </r>
       <r>    -4.0400     0.0000    26.0000 </r>
       <r>    -3.9260     0.0000    26.0000 </r>
       <r>    -3.8121     0.0000    26.0000 </r>
       <r>    -3.6982     0.0000    26.0000 </r>
       <r>    -3.5843     0.0000    26.0000 </r>
       <r>    -3.4704     0.0000    26.0000 </r>
       <r>    -3.3565     0.0000    26.0000 </r>
       <r>    -3.2425     0.0000    26.0000 </r>
       <r>    -3.1286     0.0000    26.0000 </r>
       <r>    -3.0147     0.0000    26.0000 </r>
       <r>    -2.9008     0.0000    26.0000 </r>
       <r>    -2.7869     0.0000    26.0000 </r>
       <r>    -2.6729     0.0000    26.0000 </r>
       <r>    -2.5590     0.0000    26.0000 </r>
       <r>    -2.4451     0.0000    26.0000 </r>
       <r>    -2.3312     0.0000    26.0000 </r>
       <r>    -2.2173     0.0000    26.0000 </r>
       <r>    -2.1034     0.0000    26.0000 </r>
       <r>    -1.9894     0.0000    26.0000 </r>
       <r>    -1.8755     0.0000    26.0000 </r>
       <r>    -1.7616     0.0000    26.0000 </r>
       <r>    -1.6477     0.0000    26.0000 </r>
       <r>    -1.5338     0.0000    26.0000 </r>
       <r>    -1.4199     0.0000    26.0000 </r>
       <r>    -1.3059     0.0000    26.0000 </r>
       <r>    -1.1920     0.0000    26.0000 </r>
       <r>    -1.0781     0.0000    26.0000 </r>
       <r>    -0.9642     0.0000    26.0000 </r>
       <r>    -0.8503     0.0000    26.0000 </r>
       <r>    -0.7363     0.0000    26.0000 </r>
       <r>    -0.6224     0.0000    26.0000 </r>
       <r>    -0.5085     0.0000    26.0000 </r>
       <r>    -0.3946     0.0000    26.0000 </r>
       <r>    -0.2807     0.0000    26.0000 </r>
       <r>    -0.1668     0.0000    26.0000 </r>
       <r>    -0.0528     0.0000    26.0000 </r>
       <r>     0.0611     0.0000    26.0000 </r>
       <r>     0.1750     0.0000    26.0000 </r>
       <r>     0.2889     0.0000    26.0000 </r>
       <r>     0.4028     0.0000    26.0000 </r>
       <r>     0.5167     0.0000    26.0000 </r>
       <r>     0.6307     0.0000    26.0000 </r>
       <r>     0.7446     0.0032    26.0004 </r>
       <r>     0.8585     0.5488    26.0629 </r>
       <r>     0.9724     5.8119    26.7250 </r>
       <r>     1.0863     6.3313    27.4462 </r>
       <r>     1.2003     3.7812    27.8770 </r>
       <r>     1.3142     0.8498    27.9738 </r>
       <r>     1.4281     4.0808    28.4386 </r>
       <r>     1.5420     9.0133    29.4654 </r>
       <r>     1.6559    12.2669    30.8628 </r>
       <r>     1.7698     8.3287    31.8116 </r>
       <r>     1.8838     1.6389    31.9983 </r>
       <r>     1.9977     0.0147    32.0000 </r>
       <r>     2.1116     0.0000    32.0000 </r>
       <r>     2.2255     0.0000    32.0000 </r>
       <r>     2.3394     0.0000    32.0000 </r>
       <r>     2.4533     0.0134    32.0015 </r>
       <r>     2.5673     0.0208    32.0039 </r>
       <r>     2.6812     0.0001    32.0039 </r>
       <r>     2.7951     0.0000    32.0039 </r>
       <r>     2.9090     0.0189    32.0061 </r>
       <r>     3.0229     0.4125    32.0531 </r>
       <r>     3.1369     0.1016    32.0646 </r>
       <r>     3.2508     0.0547    32.0709 </r>
       <r>     3.3647     0.7505    32.1564 </r>
       <r>     3.4786     0.8845    32.2571 </r>
       <r>     3.5925     1.1793    32.3915 </r>
       <r>     3.7064     1.9399    32.6125 </r>
       <r>     3.8204     1.9502    32.8346 </r>
       <r>     3.9343     5.4537    33.4559 </r>
       <r>     4.0482     5.7801    34.1143 </r>
       <r>     4.1621     5.4873    34.7394 </r>
       <r>     4.2760     5.1885    35.3305 </r>
       <r>     4.3899     6.6324    36.0861 </r>
       <r>     4.5039     3.2411    36.4553 </r>
       <r>     4.6178     4.3566    36.9516 </r>
       <r>     4.7317     5.1484    37.5381 </r>
       <r>     4.8456     7.6315    38.4074 </r>
       <r>     4.9595     8.4750    39.3729 </r>
       <r>     5.0735     4.1393    39.8444 </r>
       <r>     5.1874     1.1809    39.9790 </r>
       <r>     5.3013     0.1826    39.9998 </r>
       <r>     5.4152     0.0021    40.0000 </r>
       <r>     5.5291     0.0000    40.0000 </r>
       <r>     5.6430     0.0000    40.0000 </r>
       <r>     5.7570     0.0000    40.0000 </r>
       <r>     5.8709     0.0000    40.0000 </r>
       <r>     5.9848     0.0000    40.0000 </r>
       <r>     6.0987     0.0000    40.0000 </r>
       <r>     6.2126     0.0000    40.0000 </r>
       <r>     6.3265     0.0000    40.0000 </r>
       <r>     6.4405     0.0000    40.0000 </r>
       <r>     6.5544     0.0000    40.0000 </r>
       <r>     6.6683     0.0000    40.0000 </r>
       <r>     6.7822     0.0000    40.0000 </r>
      </set>
     </set>
    </array>
   </total>
  </dos>
 </calculation>
 <structure name="finalpos" >
  <crystal>
   <varray name="basis" >
    <v>       0.00000000       4.52693957       4.52693957 </v>
    <v>       4.52693957       0.00000000       4.52693957 </v>
    <v>       4.52693957       4.52693957      -0.00000000 </v>
   </varray>
   <i name="volume">    185.54279244 </i>
   <varray name="rec_basis" >
    <v>      -0.11044989       0.11044989       0.11044989 </v>
    <v>       0.11044989      -0.11044989       0.11044989 </v>
    <v>       0.11044989       0.11044989      -0.11044989 </v>
   </varray>
  </crystal>
  <varray name="positions" >
   <v>       0.24999934       0.24999934       0.24999934 </v>
   <v>      -0.00000000      -0.00000000      -0.00000000 </v>
   <v>       0.49999978       0.49999978       0.49999978 </v>
   <v>       0.75000022       0.75000022       0.75000022 </v>
  </varray>
 </structure>
</modeling>
