unknown system                          
           1
     0.000000    4.512072    4.512072
     4.512072    0.000000    4.512072
     4.512072    4.512072    0.000000
   Cs   Rb   Sb
   1   2   1
Direct configuration=     1
   0.24999934  0.24999934  0.24999934
   0.00000000  0.00000000  0.00000000
   0.49999978  0.49999978  0.49999978
   0.75000022  0.75000022  0.75000022
unknown system                          
           1
     0.000000    4.519213    4.519213
     4.519213    0.000000    4.519213
     4.519213    4.519213   -0.000000
   Cs   Rb   Sb
   1   2   1
Direct configuration=     2
   0.24999934  0.24999934  0.24999934
  -0.00000000 -0.00000000 -0.00000000
   0.49999978  0.49999978  0.49999978
   0.75000022  0.75000022  0.75000022
unknown system                          
           1
     0.000000    4.526940    4.526940
     4.526940    0.000000    4.526940
     4.526940    4.526940   -0.000000
   Cs   Rb   Sb
   1   2   1
Direct configuration=     3
   0.24999934  0.24999934  0.24999934
  -0.00000000 -0.00000000 -0.00000000
   0.49999978  0.49999978  0.49999978
   0.75000022  0.75000022  0.75000022
