   4   4   0   0
  0.2029488E+02  0.4860197E-09  0.4860197E-09  0.4860197E-09  0.5000000E-15
  1.000000000000000E-004
  CAR 
 unknown system                          
     13.24195657    -45.71749149  301      3.81907275      1.00000000
    -45.717  0.0000E+00  0.0000E+00
    -45.521  0.0000E+00  0.0000E+00
    -45.324  0.0000E+00  0.0000E+00
    -45.128  0.0000E+00  0.0000E+00
    -44.931  0.0000E+00  0.0000E+00
    -44.735  0.0000E+00  0.0000E+00
    -44.538  0.0000E+00  0.0000E+00
    -44.342  0.0000E+00  0.0000E+00
    -44.145  0.0000E+00  0.0000E+00
    -43.949  0.0000E+00  0.0000E+00
    -43.752  0.0000E+00  0.0000E+00
    -43.556  0.0000E+00  0.0000E+00
    -43.359  0.0000E+00  0.0000E+00
    -43.163  0.3376E-04  0.6635E-05
    -42.966  0.1985E+00  0.3902E-01
    -42.770  0.4991E-02  0.4000E-01
    -42.573  0.0000E+00  0.4000E-01
    -42.376  0.0000E+00  0.4000E-01
    -42.180  0.0000E+00  0.4000E-01
    -41.983  0.0000E+00  0.4000E-01
    -41.787  0.0000E+00  0.4000E-01
    -41.590  0.0000E+00  0.4000E-01
    -41.394  0.0000E+00  0.4000E-01
    -41.197  0.0000E+00  0.4000E-01
    -41.001  0.0000E+00  0.4000E-01
    -40.804  0.0000E+00  0.4000E-01
    -40.608  0.0000E+00  0.4000E-01
    -40.411  0.0000E+00  0.4000E-01
    -40.215  0.0000E+00  0.4000E-01
    -40.018  0.0000E+00  0.4000E-01
    -39.822  0.0000E+00  0.4000E-01
    -39.625  0.0000E+00  0.4000E-01
    -39.428  0.0000E+00  0.4000E-01
    -39.232  0.0000E+00  0.4000E-01
    -39.035  0.0000E+00  0.4000E-01
    -38.839  0.0000E+00  0.4000E-01
    -38.642  0.0000E+00  0.4000E-01
    -38.446  0.0000E+00  0.4000E-01
    -38.249  0.0000E+00  0.4000E-01
    -38.053  0.0000E+00  0.4000E-01
    -37.856  0.0000E+00  0.4000E-01
    -37.660  0.0000E+00  0.4000E-01
    -37.463  0.0000E+00  0.4000E-01
    -37.267  0.0000E+00  0.4000E-01
    -37.070  0.0000E+00  0.4000E-01
    -36.874  0.0000E+00  0.4000E-01
    -36.677  0.0000E+00  0.4000E-01
    -36.481  0.0000E+00  0.4000E-01
    -36.284  0.0000E+00  0.4000E-01
    -36.087  0.0000E+00  0.4000E-01
    -35.891  0.0000E+00  0.4000E-01
    -35.694  0.0000E+00  0.4000E-01
    -35.498  0.0000E+00  0.4000E-01
    -35.301  0.0000E+00  0.4000E-01
    -35.105  0.0000E+00  0.4000E-01
    -34.908  0.0000E+00  0.4000E-01
    -34.712  0.0000E+00  0.4000E-01
    -34.515  0.0000E+00  0.4000E-01
    -34.319  0.0000E+00  0.4000E-01
    -34.122  0.0000E+00  0.4000E-01
    -33.926  0.0000E+00  0.4000E-01
    -33.729  0.0000E+00  0.4000E-01
    -33.533  0.0000E+00  0.4000E-01
    -33.336  0.0000E+00  0.4000E-01
    -33.139  0.0000E+00  0.4000E-01
    -32.943  0.0000E+00  0.4000E-01
    -32.746  0.0000E+00  0.4000E-01
    -32.550  0.0000E+00  0.4000E-01
    -32.353  0.0000E+00  0.4000E-01
    -32.157  0.0000E+00  0.4000E-01
    -31.960  0.0000E+00  0.4000E-01
    -31.764  0.0000E+00  0.4000E-01
    -31.567  0.0000E+00  0.4000E-01
    -31.371  0.0000E+00  0.4000E-01
    -31.174  0.0000E+00  0.4000E-01
    -30.978  0.0000E+00  0.4000E-01
    -30.781  0.0000E+00  0.4000E-01
    -30.585  0.0000E+00  0.4000E-01
    -30.388  0.0000E+00  0.4000E-01
    -30.192  0.0000E+00  0.4000E-01
    -29.995  0.0000E+00  0.4000E-01
    -29.798  0.0000E+00  0.4000E-01
    -29.602  0.0000E+00  0.4000E-01
    -29.405  0.0000E+00  0.4000E-01
    -29.209  0.0000E+00  0.4000E-01
    -29.012  0.0000E+00  0.4000E-01
    -28.816  0.0000E+00  0.4000E-01
    -28.619  0.0000E+00  0.4000E-01
    -28.423  0.0000E+00  0.4000E-01
    -28.226  0.0000E+00  0.4000E-01
    -28.030  0.0000E+00  0.4000E-01
    -27.833  0.0000E+00  0.4000E-01
    -27.637  0.0000E+00  0.4000E-01
    -27.440  0.0000E+00  0.4000E-01
    -27.244  0.0000E+00  0.4000E-01
    -27.047  0.0000E+00  0.4000E-01
    -26.850  0.0000E+00  0.4000E-01
    -26.654  0.0000E+00  0.4000E-01
    -26.457  0.0000E+00  0.4000E-01
    -26.261  0.0000E+00  0.4000E-01
    -26.064  0.0000E+00  0.4000E-01
    -25.868  0.0000E+00  0.4000E-01
    -25.671  0.0000E+00  0.4000E-01
    -25.475  0.0000E+00  0.4000E-01
    -25.278  0.0000E+00  0.4000E-01
    -25.082  0.0000E+00  0.4000E-01
    -24.885  0.0000E+00  0.4000E-01
    -24.689  0.0000E+00  0.4000E-01
    -24.492  0.0000E+00  0.4000E-01
    -24.296  0.0000E+00  0.4000E-01
    -24.099  0.0000E+00  0.4000E-01
    -23.902  0.0000E+00  0.4000E-01
    -23.706  0.0000E+00  0.4000E-01
    -23.509  0.0000E+00  0.4000E-01
    -23.313  0.0000E+00  0.4000E-01
    -23.116  0.0000E+00  0.4000E-01
    -22.920  0.0000E+00  0.4000E-01
    -22.723  0.0000E+00  0.4000E-01
    -22.527  0.0000E+00  0.4000E-01
    -22.330  0.0000E+00  0.4000E-01
    -22.134  0.0000E+00  0.4000E-01
    -21.937  0.0000E+00  0.4000E-01
    -21.741  0.0000E+00  0.4000E-01
    -21.544  0.0000E+00  0.4000E-01
    -21.348  0.0000E+00  0.4000E-01
    -21.151  0.1792E-10  0.4000E-01
    -20.955  0.5747E-01  0.5130E-01
    -20.758  0.2478E+00  0.1000E+00
    -20.561  0.4509E-06  0.1000E+00
    -20.365  0.0000E+00  0.1000E+00
    -20.168  0.0000E+00  0.1000E+00
    -19.972  0.0000E+00  0.1000E+00
    -19.775  0.0000E+00  0.1000E+00
    -19.579  0.0000E+00  0.1000E+00
    -19.382  0.0000E+00  0.1000E+00
    -19.186  0.0000E+00  0.1000E+00
    -18.989  0.0000E+00  0.1000E+00
    -18.793  0.0000E+00  0.1000E+00
    -18.596  0.0000E+00  0.1000E+00
    -18.400  0.0000E+00  0.1000E+00
    -18.203  0.2710E-03  0.1001E+00
    -18.007  0.5022E+00  0.1988E+00
    -17.810  0.6353E-02  0.2000E+00
    -17.613  0.0000E+00  0.2000E+00
    -17.417  0.0000E+00  0.2000E+00
    -17.220  0.0000E+00  0.2000E+00
    -17.024  0.0000E+00  0.2000E+00
    -16.827  0.0000E+00  0.2000E+00
    -16.631  0.0000E+00  0.2000E+00
    -16.434  0.0000E+00  0.2000E+00
    -16.238  0.0000E+00  0.2000E+00
    -16.041  0.0000E+00  0.2000E+00
    -15.845  0.0000E+00  0.2000E+00
    -15.648  0.0000E+00  0.2000E+00
    -15.452  0.0000E+00  0.2000E+00
    -15.255  0.0000E+00  0.2000E+00
    -15.059  0.0000E+00  0.2000E+00
    -14.862  0.0000E+00  0.2000E+00
    -14.666  0.0000E+00  0.2000E+00
    -14.469  0.0000E+00  0.2000E+00
    -14.272  0.0000E+00  0.2000E+00
    -14.076  0.0000E+00  0.2000E+00
    -13.879  0.0000E+00  0.2000E+00
    -13.683  0.0000E+00  0.2000E+00
    -13.486  0.0000E+00  0.2000E+00
    -13.290  0.0000E+00  0.2000E+00
    -13.093  0.0000E+00  0.2000E+00
    -12.897  0.0000E+00  0.2000E+00
    -12.700  0.0000E+00  0.2000E+00
    -12.504  0.0000E+00  0.2000E+00
    -12.307  0.0000E+00  0.2000E+00
    -12.111  0.0000E+00  0.2000E+00
    -11.914  0.0000E+00  0.2000E+00
    -11.718  0.0000E+00  0.2000E+00
    -11.521  0.0000E+00  0.2000E+00
    -11.324  0.0000E+00  0.2000E+00
    -11.128  0.0000E+00  0.2000E+00
    -10.931  0.0000E+00  0.2000E+00
    -10.735  0.0000E+00  0.2000E+00
    -10.538  0.0000E+00  0.2000E+00
    -10.342  0.0000E+00  0.2000E+00
    -10.145  0.0000E+00  0.2000E+00
     -9.949  0.0000E+00  0.2000E+00
     -9.752  0.0000E+00  0.2000E+00
     -9.556  0.0000E+00  0.2000E+00
     -9.359  0.0000E+00  0.2000E+00
     -9.163  0.0000E+00  0.2000E+00
     -8.966  0.0000E+00  0.2000E+00
     -8.770  0.0000E+00  0.2000E+00
     -8.573  0.0000E+00  0.2000E+00
     -8.377  0.0000E+00  0.2000E+00
     -8.180  0.0000E+00  0.2000E+00
     -7.983  0.0000E+00  0.2000E+00
     -7.787  0.0000E+00  0.2000E+00
     -7.590  0.0000E+00  0.2000E+00
     -7.394  0.0000E+00  0.2000E+00
     -7.197  0.0000E+00  0.2000E+00
     -7.001  0.6103E-15  0.2000E+00
     -6.804  0.2389E-04  0.2000E+00
     -6.608  0.6221E-02  0.2012E+00
     -6.411  0.2534E-01  0.2062E+00
     -6.215  0.6843E-01  0.2197E+00
     -6.018  0.1750E-02  0.2200E+00
     -5.822  0.0000E+00  0.2200E+00
     -5.625  0.0000E+00  0.2200E+00
     -5.429  0.0000E+00  0.2200E+00
     -5.232  0.0000E+00  0.2200E+00
     -5.035  0.0000E+00  0.2200E+00
     -4.839  0.0000E+00  0.2200E+00
     -4.642  0.0000E+00  0.2200E+00
     -4.446  0.0000E+00  0.2200E+00
     -4.249  0.0000E+00  0.2200E+00
     -4.053  0.0000E+00  0.2200E+00
     -3.856  0.0000E+00  0.2200E+00
     -3.660  0.0000E+00  0.2200E+00
     -3.463  0.0000E+00  0.2200E+00
     -3.267  0.0000E+00  0.2200E+00
     -3.070  0.0000E+00  0.2200E+00
     -2.874  0.0000E+00  0.2200E+00
     -2.677  0.0000E+00  0.2200E+00
     -2.481  0.0000E+00  0.2200E+00
     -2.284  0.0000E+00  0.2200E+00
     -2.087  0.0000E+00  0.2200E+00
     -1.891  0.0000E+00  0.2200E+00
     -1.694  0.0000E+00  0.2200E+00
     -1.498  0.0000E+00  0.2200E+00
     -1.301  0.0000E+00  0.2200E+00
     -1.105  0.0000E+00  0.2200E+00
     -0.908  0.0000E+00  0.2200E+00
     -0.712  0.0000E+00  0.2200E+00
     -0.515  0.0000E+00  0.2200E+00
     -0.319  0.0000E+00  0.2200E+00
     -0.122  0.5064E-10  0.2200E+00
      0.074  0.4848E-03  0.2201E+00
      0.271  0.6250E-02  0.2213E+00
      0.467  0.1115E-01  0.2235E+00
      0.664  0.2261E-01  0.2280E+00
      0.860  0.3008E-01  0.2339E+00
      1.057  0.1631E-01  0.2371E+00
      1.254  0.7621E-02  0.2386E+00
      1.450  0.1570E-01  0.2417E+00
      1.647  0.1948E-01  0.2455E+00
      1.843  0.2291E-01  0.2500E+00
      2.040  0.2801E-01  0.2555E+00
      2.236  0.1790E-01  0.2590E+00
      2.433  0.2502E-01  0.2639E+00
      2.629  0.2313E-01  0.2685E+00
      2.826  0.1906E-01  0.2722E+00
      3.022  0.2201E-01  0.2765E+00
      3.219  0.8400E-02  0.2782E+00
      3.415  0.3092E-02  0.2788E+00
      3.612  0.5587E-02  0.2799E+00
      3.808  0.4795E-03  0.2800E+00
      4.005  0.3629E-03  0.2801E+00
      4.202  0.4321E-03  0.2802E+00
      4.398  0.1436E-02  0.2804E+00
      4.595  0.4527E-02  0.2813E+00
      4.791  0.1097E-02  0.2815E+00
      4.988  0.5774E-02  0.2827E+00
      5.184  0.1429E-01  0.2855E+00
      5.381  0.8652E-02  0.2872E+00
      5.577  0.2478E-01  0.2921E+00
      5.774  0.1999E-01  0.2960E+00
      5.970  0.1306E-01  0.2986E+00
      6.167  0.9498E-02  0.3004E+00
      6.363  0.1385E-01  0.3031E+00
      6.560  0.4252E-01  0.3115E+00
      6.756  0.2443E-01  0.3163E+00
      6.953  0.2386E-01  0.3210E+00
      7.149  0.1145E-01  0.3232E+00
      7.346  0.2513E-01  0.3282E+00
      7.543  0.2557E-01  0.3332E+00
      7.739  0.9633E-02  0.3351E+00
      7.936  0.2884E-01  0.3408E+00
      8.132  0.1425E-01  0.3436E+00
      8.329  0.1654E-01  0.3468E+00
      8.525  0.4940E-02  0.3478E+00
      8.722  0.5384E-02  0.3488E+00
      8.918  0.1707E-01  0.3522E+00
      9.115  0.1767E-01  0.3557E+00
      9.311  0.2719E-02  0.3562E+00
      9.508  0.7263E-02  0.3576E+00
      9.704  0.1076E-01  0.3597E+00
      9.901  0.1139E-03  0.3598E+00
     10.097  0.0000E+00  0.3598E+00
     10.294  0.2062E-16  0.3598E+00
     10.491  0.2579E-04  0.3598E+00
     10.687  0.1167E-02  0.3600E+00
     10.884  0.2408E-06  0.3600E+00
     11.080  0.0000E+00  0.3600E+00
     11.277  0.0000E+00  0.3600E+00
     11.473  0.0000E+00  0.3600E+00
     11.670  0.0000E+00  0.3600E+00
     11.866  0.0000E+00  0.3600E+00
     12.063  0.0000E+00  0.3600E+00
     12.259  0.0000E+00  0.3600E+00
     12.456  0.0000E+00  0.3600E+00
     12.652  0.0000E+00  0.3600E+00
     12.849  0.0000E+00  0.3600E+00
     13.045  0.0000E+00  0.3600E+00
     13.242  0.0000E+00  0.3600E+00
