    4    4  100    1
  0.2029488E+02  0.4860197E-09  0.4860197E-09  0.4860197E-09  0.5000000E-15
  1.000000000000000E-004
  CAR 
 unknown system                          
     28     29     18
 
  0.0000000E+00  0.0000000E+00  0.0000000E+00  0.1953125E-02
    1      -43.037517   1.000000
    2      -43.033753   1.000000
    3      -20.922195   1.000000
    4      -20.922195   1.000000
    5      -20.922195   1.000000
    6      -18.092595   1.000000
    7      -18.092588   1.000000
    8      -18.092588   1.000000
    9      -18.081845   1.000000
   10      -18.081845   1.000000
   11       -6.757672   1.000000
   12        3.641824   1.000000
   13        3.641869   1.000000
   14        3.641869   1.000000
   15        4.070376   0.000000
   16        6.221286   0.000000
   17        6.221314   0.000000
   18        6.221314   0.000000
 
  0.1250000E+00  0.0000000E+00  0.0000000E+00  0.1562500E-01
    1      -43.037425   1.000000
    2      -43.033892   1.000000
    3      -20.922519   1.000000
    4      -20.922336   1.000000
    5      -20.922336   1.000000
    6      -18.092256   1.000000
    7      -18.092217   1.000000
    8      -18.092211   1.000000
    9      -18.081688   1.000000
   10      -18.081687   1.000000
   11       -6.706477   1.000000
   12        2.441861   1.000000
   13        3.490125   1.000000
   14        3.490166   1.000000
   15        4.833484   0.000000
   16        6.466470   0.000000
   17        6.466487   0.000000
   18        6.833067   0.000000
 
  0.2500000E+00  0.0000000E+00  0.0000000E+00  0.1562500E-01
    1      -43.037010   1.000000
    2      -43.034309   1.000000
    3      -20.923264   1.000000
    4      -20.922641   1.000000
    5      -20.922640   1.000000
    6      -18.091391   1.000000
    7      -18.091331   1.000000
    8      -18.091326   1.000000
    9      -18.081185   1.000000
   10      -18.081184   1.000000
   11       -6.574645   1.000000
   12        1.208561   1.000000
   13        3.206979   1.000000
   14        3.207025   1.000000
   15        5.138334   0.000000
   16        6.681566   0.000000
   17        6.681576   0.000000
   18        8.036862   0.000000
 
  0.3750000E+00  0.0000000E+00  0.0000000E+00  0.1562500E-01
    1      -43.036376   1.000000
    2      -43.034939   1.000000
    3      -20.924002   1.000000
    4      -20.922947   1.000000
    5      -20.922947   1.000000
    6      -18.090543   1.000000
    7      -18.090538   1.000000
    8      -18.090518   1.000000
    9      -18.080590   1.000000
   10      -18.080588   1.000000
   11       -6.429305   1.000000
   12        0.366295   1.000000
   13        2.989644   1.000000
   14        2.989693   1.000000
   15        5.250412   0.000000
   16        6.479931   0.000000
   17        6.479957   0.000000
   18        8.517443   0.000000
 
  0.5000000E+00  0.0000000E+00  0.0000000E+00  0.7812500E-02
    1      -43.035670   1.000000
    2      -43.035646   1.000000
    3      -20.924311   1.000000
    4      -20.923070   1.000000
    5      -20.923070   1.000000
    6      -18.090246   1.000000
    7      -18.090242   1.000000
    8      -18.090169   1.000000
    9      -18.080300   1.000000
   10      -18.080298   1.000000
   11       -6.364332   1.000000
   12        0.064582   1.000000
   13        2.911771   1.000000
   14        2.911821   1.000000
   15        5.284167   0.000000
   16        6.363839   0.000000
   17        6.363869   0.000000
   18        8.565610   0.000000
 
  0.1250000E+00  0.1250000E+00  0.0000000E+00  0.1171875E-01
    1      -43.037393   1.000000
    2      -43.033921   1.000000
    3      -20.922666   1.000000
    4      -20.922336   1.000000
    5      -20.922336   1.000000
    6      -18.092624   1.000000
    7      -18.091825   1.000000
    8      -18.091821   1.000000
    9      -18.081781   1.000000
   10      -18.081556   1.000000
   11       -6.689828   1.000000
   12        2.493776   1.000000
   13        3.186935   1.000000
   14        3.186961   1.000000
   15        5.286643   0.000000
   16        6.185757   0.000000
   17        6.895738   0.000000
   18        6.895760   0.000000
 
  0.2500000E+00  0.1250000E+00  0.0000000E+00  0.4687500E-01
    1      -43.037073   1.000000
    2      -43.034244   1.000000
    3      -20.923194   1.000000
    4      -20.922587   1.000000
    5      -20.922545   1.000000
    6      -18.092264   1.000000
    7      -18.090924   1.000000
    8      -18.090908   1.000000
    9      -18.081643   1.000000
   10      -18.081107   1.000000
   11       -6.585672   1.000000
   12        1.543462   1.000000
   13        2.860871   1.000000
   14        2.977750   1.000000
   15        5.538836   0.000000
   16        6.396152   0.000000
   17        7.116556   0.000000
   18        7.329237   0.000000
 
  0.3750000E+00  0.1250000E+00  0.0000000E+00  0.4687500E-01
    1      -43.036539   1.000000
    2      -43.034740   1.000000
    3      -20.923784   1.000000
    4      -20.922937   1.000000
    5      -20.922845   1.000000
    6      -18.091380   1.000000
    7      -18.090085   1.000000
    8      -18.090053   1.000000
    9      -18.081243   1.000000
   10      -18.080530   1.000000
   11       -6.444293   1.000000
   12        0.655925   1.000000
   13        2.677432   1.000000
   14        2.696604   1.000000
   15        5.555069   0.000000
   16        6.490428   0.000000
   17        7.160892   0.000000
   18        7.649155   0.000000
 
  0.5000000E+00  0.1250000E+00  0.0000000E+00  0.4687500E-01
    1      -43.035893   1.000000
    2      -43.035412   1.000000
    3      -20.924169   1.000000
    4      -20.923136   1.000000
    5      -20.923062   1.000000
    6      -18.090572   1.000000
    7      -18.089772   1.000000
    8      -18.089758   1.000000
    9      -18.080825   1.000000
   10      -18.080253   1.000000
   11       -6.350155   1.000000
   12        0.200932   1.000000
   13        2.435233   1.000000
   14        2.686008   1.000000
   15        5.586276   0.000000
   16        6.437072   0.000000
   17        6.849362   0.000000
   18        8.795054   0.000000
 
 -0.3750000E+00  0.1250000E+00  0.0000000E+00  0.4687500E-01
    1      -43.036104   1.000000
    2      -43.035221   1.000000
    3      -20.924105   1.000000
    4      -20.923069   1.000000
    5      -20.923060   1.000000
    6      -18.090244   1.000000
    7      -18.090134   1.000000
    8      -18.090073   1.000000
    9      -18.080699   1.000000
   10      -18.080509   1.000000
   11       -6.371284   1.000000
   12        0.292948   1.000000
   13        2.319723   1.000000
   14        2.879671   1.000000
   15        5.638569   0.000000
   16        6.531533   0.000000
   17        6.720713   0.000000
   18        8.930631   0.000000
 
 -0.2500000E+00  0.1250000E+00  0.0000000E+00  0.4687500E-01
    1      -43.036740   1.000000
    2      -43.034579   1.000000
    3      -20.923612   1.000000
    4      -20.922854   1.000000
    5      -20.922768   1.000000
    6      -18.091013   1.000000
    7      -18.090866   1.000000
    8      -18.090519   1.000000
    9      -18.081060   1.000000
   10      -18.080958   1.000000
   11       -6.491499   1.000000
   12        0.893483   1.000000
   13        2.418087   1.000000
   14        3.199359   1.000000
   15        5.582301   0.000000
   16        6.777963   0.000000
   17        6.843544   0.000000
   18        7.946317   0.000000
 
 -0.1250000E+00  0.1250000E+00  0.0000000E+00  0.2343750E-01
    1      -43.037202   1.000000
    2      -43.034133   1.000000
    3      -20.922971   1.000000
    4      -20.922547   1.000000
    5      -20.922463   1.000000
    6      -18.091906   1.000000
    7      -18.091788   1.000000
    8      -18.091346   1.000000
    9      -18.081507   1.000000
   10      -18.081390   1.000000
   11       -6.628483   1.000000
   12        1.769772   1.000000
   13        2.817523   1.000000
   14        3.490344   1.000000
   15        5.301136   0.000000
   16        6.573812   0.000000
   17        7.084382   0.000000
   18        7.158612   0.000000
 
  0.2500000E+00  0.2500000E+00  0.0000000E+00  0.1171875E-01
    1      -43.036932   1.000000
    2      -43.034388   1.000000
    3      -20.923454   1.000000
    4      -20.922634   1.000000
    5      -20.922634   1.000000
    6      -18.092698   1.000000
    7      -18.089947   1.000000
    8      -18.089942   1.000000
    9      -18.082077   1.000000
   10      -18.080804   1.000000
   11       -6.519310   1.000000
   12        1.491608   1.000000
   13        2.488283   1.000000
   14        2.488306   1.000000
   15        5.245507   0.000000
   16        6.107916   0.000000
   17        8.156480   0.000000
   18        8.156526   0.000000
 
  0.3750000E+00  0.2500000E+00  0.0000000E+00  0.4687500E-01
    1      -43.036580   1.000000
    2      -43.034727   1.000000
    3      -20.923728   1.000000
    4      -20.922908   1.000000
    5      -20.922833   1.000000
    6      -18.092331   1.000000
    7      -18.089040   1.000000
    8      -18.089038   1.000000
    9      -18.082264   1.000000
   10      -18.080344   1.000000
   11       -6.407866   1.000000
   12        0.957288   1.000000
   13        2.160647   1.000000
   14        2.272056   1.000000
   15        5.026653   0.000000
   16        6.377873   0.000000
   17        7.951227   0.000000
   18        8.360805   0.000000
 
  0.5000000E+00  0.2500000E+00  0.0000000E+00  0.4687500E-01
    1      -43.036098   1.000000
    2      -43.035207   1.000000
    3      -20.923870   1.000000
    4      -20.923254   1.000000
    5      -20.923044   1.000000
    6      -18.091435   1.000000
    7      -18.088739   1.000000
    8      -18.088678   1.000000
    9      -18.082065   1.000000
   10      -18.080096   1.000000
   11       -6.314577   1.000000
   12        0.554967   1.000000
   13        1.740772   1.000000
   14        2.269502   1.000000
   15        5.156692   0.000000
   16        7.245347   0.000000
   17        7.805131   0.000000
   18        8.030698   0.000000
 
 -0.3750000E+00  0.2500000E+00  0.0000000E+00  0.4687500E-01
    1      -43.035758   1.000000
    2      -43.035557   1.000000
    3      -20.923934   1.000000
    4      -20.923314   1.000000
    5      -20.923139   1.000000
    6      -18.090600   1.000000
    7      -18.089151   1.000000
    8      -18.088998   1.000000
    9      -18.081572   1.000000
   10      -18.080286   1.000000
   11       -6.301634   1.000000
   12        0.491654   1.000000
   13        1.493383   1.000000
   14        2.480632   1.000000
   15        5.427846   0.000000
   16        7.419927   0.000000
   17        7.759796   0.000000
   18        8.840341   0.000000
 
 -0.2500000E+00  0.2500000E+00  0.0000000E+00  0.2343750E-01
    1      -43.036301   1.000000
    2      -43.035002   1.000000
    3      -20.923883   1.000000
    4      -20.923055   1.000000
    5      -20.923044   1.000000
    6      -18.090238   1.000000
    7      -18.090077   1.000000
    8      -18.089874   1.000000
    9      -18.081093   1.000000
   10      -18.080710   1.000000
   11       -6.378175   1.000000
   12        0.664034   1.000000
   13        1.686059   1.000000
   14        2.849187   1.000000
   15        5.723276   0.000000
   16        7.083534   0.000000
   17        7.630292   0.000000
   18        7.772442   0.000000
 
  0.3750000E+00  0.3750000E+00  0.0000000E+00  0.1171875E-01
    1      -43.036460   1.000000
    2      -43.034844   1.000000
    3      -20.923802   1.000000
    4      -20.922914   1.000000
    5      -20.922913   1.000000
    6      -18.092751   1.000000
    7      -18.088063   1.000000
    8      -18.088058   1.000000
    9      -18.083046   1.000000
   10      -18.080044   1.000000
   11       -6.338808   1.000000
   12        0.886376   1.000000
   13        2.004066   1.000000
   14        2.004088   1.000000
   15        4.354971   0.000000
   16        6.038729   0.000000
   17        9.456689   0.000000
   18        9.456705   0.000000
 
  0.5000000E+00  0.3750000E+00  0.0000000E+00  0.4687500E-01
    1      -43.036238   1.000000
    2      -43.035057   1.000000
    3      -20.923784   1.000000
    4      -20.923146   1.000000
    5      -20.923034   1.000000
    6      -18.092375   1.000000
    7      -18.087703   1.000000
    8      -18.087684   1.000000
    9      -18.083208   1.000000
   10      -18.079852   1.000000
   11       -6.276981   1.000000
   12        0.760639   1.000000
   13        1.584279   1.000000
   14        1.950564   1.000000
   15        4.447966   0.000000
   16        6.318566   0.000000
   17        9.341272   0.000000
   18        9.533003   0.000000
 
 -0.3750000E+00  0.3750000E+00  0.0000000E+00  0.2343750E-01
    1      -43.035923   1.000000
    2      -43.035396   1.000000
    3      -20.923610   1.000000
    4      -20.923551   1.000000
    5      -20.923131   1.000000
    6      -18.091465   1.000000
    7      -18.088151   1.000000
    8      -18.088051   1.000000
    9      -18.082635   1.000000
   10      -18.079999   1.000000
   11       -6.261414   1.000000
   12        0.940874   1.000000
   13        0.959161   1.000000
   14        2.122837   1.000000
   15        4.935887   0.000000
   16        7.255458   0.000000
   17        8.686505   0.000000
   18        9.132569   0.000000
 
  0.5000000E+00  0.5000000E+00  0.0000000E+00  0.5859375E-02
    1      -43.036295   1.000000
    2      -43.035019   1.000000
    3      -20.923831   1.000000
    4      -20.923031   1.000000
    5      -20.923031   1.000000
    6      -18.092789   1.000000
    7      -18.087299   1.000000
    8      -18.087295   1.000000
    9      -18.083667   1.000000
   10      -18.079717   1.000000
   11       -6.260756   1.000000
   12        0.687588   1.000000
   13        1.836018   1.000000
   14        1.836039   1.000000
   15        3.996206   0.000000
   16        6.012061   0.000000
   17       10.561972   0.000000
   18       10.561982   0.000000
 
  0.3750000E+00  0.2500000E+00  0.1250000E+00  0.4687500E-01
    1      -43.036752   1.000000
    2      -43.034554   1.000000
    3      -20.923591   1.000000
    4      -20.922832   1.000000
    5      -20.922755   1.000000
    6      -18.091896   1.000000
    7      -18.090075   1.000000
    8      -18.089941   1.000000
    9      -18.081657   1.000000
   10      -18.080694   1.000000
   11       -6.477019   1.000000
   12        1.071183   1.000000
   13        2.201812   1.000000
   14        2.824588   1.000000
   15        5.680361   0.000000
   16        6.636639   0.000000
   17        6.850796   0.000000
   18        8.211547   0.000000
 
  0.5000000E+00  0.2500000E+00  0.1250000E+00  0.9375000E-01
    1      -43.036242   1.000000
    2      -43.035079   1.000000
    3      -20.923903   1.000000
    4      -20.923117   1.000000
    5      -20.923034   1.000000
    6      -18.090994   1.000000
    7      -18.089790   1.000000
    8      -18.089050   1.000000
    9      -18.081546   1.000000
   10      -18.080352   1.000000
   11       -6.359724   1.000000
   12        0.581653   1.000000
   13        1.880261   1.000000
   14        2.515079   1.000000
   15        5.865119   0.000000
   16        6.487876   0.000000
   17        7.426954   0.000000
   18        8.193459   0.000000
 
 -0.3750000E+00  0.2500000E+00  0.1250000E+00  0.4687500E-01
    1      -43.035672   1.000000
    2      -43.035660   1.000000
    3      -20.924009   1.000000
    4      -20.923259   1.000000
    5      -20.923153   1.000000
    6      -18.090170   1.000000
    7      -18.090117   1.000000
    8      -18.088703   1.000000
    9      -18.081465   1.000000
   10      -18.080224   1.000000
   11       -6.308191   1.000000
   12        0.374869   1.000000
   13        1.821217   1.000000
   14        2.350235   1.000000
   15        5.991967   0.000000
   16        6.274528   0.000000
   17        7.888655   0.000000
   18        8.969254   0.000000
 
  0.5000000E+00  0.3750000E+00  0.1250000E+00  0.4687500E-01
    1      -43.036279   1.000000
    2      -43.035015   1.000000
    3      -20.923790   1.000000
    4      -20.923101   1.000000
    5      -20.923036   1.000000
    6      -18.091949   1.000000
    7      -18.088709   1.000000
    8      -18.088059   1.000000
    9      -18.082573   1.000000
   10      -18.080064   1.000000
   11       -6.320936   1.000000
   12        0.789430   1.000000
   13        1.757605   1.000000
   14        1.976147   1.000000
   15        5.073098   0.000000
   16        6.573189   0.000000
   17        7.779758   0.000000
   18        9.580848   0.000000
 
 -0.3750000E+00  0.3750000E+00  0.1250000E+00  0.9375000E-01
    1      -43.035897   1.000000
    2      -43.035406   1.000000
    3      -20.923707   1.000000
    4      -20.923393   1.000000
    5      -20.923199   1.000000
    6      -18.091027   1.000000
    7      -18.089088   1.000000
    8      -18.087690   1.000000
    9      -18.082478   1.000000
   10      -18.080039   1.000000
   11       -6.268566   1.000000
   12        0.758553   1.000000
   13        1.332939   1.000000
   14        1.860201   1.000000
   15        5.532264   0.000000
   16        7.285223   0.000000
   17        7.447968   0.000000
   18        9.035683   0.000000
 
 -0.2500000E+00  0.3750000E+00  0.1250000E+00  0.4687500E-01
    1      -43.035833   1.000000
    2      -43.035480   1.000000
    3      -20.923805   1.000000
    4      -20.923325   1.000000
    5      -20.923217   1.000000
    6      -18.090165   1.000000
    7      -18.090010   1.000000
    8      -18.088076   1.000000
    9      -18.082023   1.000000
   10      -18.080208   1.000000
   11       -6.285402   1.000000
   12        0.703915   1.000000
   13        1.296857   1.000000
   14        2.113309   1.000000
   15        5.977756   0.000000
   16        6.740066   0.000000
   17        7.875026   0.000000
   18        8.794145   0.000000
 
 -0.3750000E+00  0.5000000E+00  0.1250000E+00  0.2343750E-01
    1      -43.036114   1.000000
    2      -43.035191   1.000000
    3      -20.923712   1.000000
    4      -20.923253   1.000000
    5      -20.923156   1.000000
    6      -18.091982   1.000000
    7      -18.088091   1.000000
    8      -18.087300   1.000000
    9      -18.083186   1.000000
   10      -18.079849   1.000000
   11       -6.255014   1.000000
   12        0.812435   1.000000
   13        1.539872   1.000000
   14        1.601456   1.000000
   15        4.801641   0.000000
   16        6.544413   0.000000
   17        8.695535   0.000000
   18        9.645286   0.000000
 
 -0.2500000E+00  0.5000000E+00  0.2500000E+00  0.1171875E-01
    1      -43.035661   1.000000
    2      -43.035659   1.000000
    3      -20.923485   1.000000
    4      -20.923444   1.000000
    5      -20.923443   1.000000
    6      -18.090043   1.000000
    7      -18.090038   1.000000
    8      -18.087301   1.000000
    9      -18.082672   1.000000
   10      -18.080037   1.000000
   11       -6.249247   1.000000
   12        1.157862   1.000000
   13        1.157898   1.000000
   14        1.323225   1.000000
   15        6.438684   0.000000
   16        6.625576   0.000000
   17        7.872040   0.000000
   18        7.872054   0.000000
