 vasp.5.4.4.18Apr17-6-g9f103f2a35 (build Jun 23 2019 17:35:09) complex          
  
 executed on             LinuxIFC date 2020.01.14  23:12:37
 running on   28 total cores
 distrk:  each k-point on    7 cores,    4 groups
 distr:  one band on NCORES_PER_BAND=   7 cores,    1 groups


--------------------------------------------------------------------------------------------------------


 INCAR:
 POTCAR:    PAW_PBE Bi_d 06Sep2000                
 POTCAR:    PAW_PBE Li_sv 10Sep2004               
 POTCAR:    PAW_PBE Na_pv 19Sep2006               

 ----------------------------------------------------------------------------- 
|                                                                             |
|           W    W    AA    RRRRR   N    N  II  N    N   GGGG   !!!           |
|           W    W   A  A   R    R  NN   N  II  NN   N  G    G  !!!           |
|           W    W  A    A  R    R  N N  N  II  N N  N  G       !!!           |
|           W WW W  AAAAAA  RRRRR   N  N N  II  N  N N  G  GGG   !            |
|           WW  WW  A    A  R   R   N   NN  II  N   NN  G    G                |
|           W    W  A    A  R    R  N    N  II  N    N   GGGG   !!!           |
|                                                                             |
|      You have enabled k-point parallelism (KPAR>1).                         |
|      This developmental code was originally  written by Paul Kent at ORNL,  |
|      and carefully double checked in Vienna.                                |
|      GW as well as linear response parallelism added by Martijn Marsman     |
|      and Georg Kresse.                                                      |
|      Carefully verify results versus KPAR=1.                                |
|      Report problems to Paul Kent and Vienna.                               |
|                                                                             |
 ----------------------------------------------------------------------------- 

 POTCAR:    PAW_PBE Bi_d 06Sep2000                
   VRHFIN =Bi:                                                                  
   LEXCH  = PE                                                                  
   EATOM  =  1959.2045 eV,  143.9975 Ry                                         
                                                                                
   TITEL  = PAW_PBE Bi_d 06Sep2000                                              
   LULTRA =        F    use ultrasoft PP ?                                      
   IUNSCR =        1    unscreen: 0-lin 1-nonlin 2-no                           
   RPACOR =    2.200    partial core radius                                     
   POMASS =  208.980; ZVAL   =   15.000    mass and valenz                      
   RCORE  =    2.500    outmost cutoff radius                                   
   RWIGS  =    3.090; RWIGS  =    1.635    wigner-seitz radius (au A)           
   ENMAX  =  242.839; ENMIN  =  182.129 eV                                      
   ICORE  =        3    local potential                                         
   LCOR   =        T    correct aug charges                                     
   LPAW   =        T    paw PP                                                  
   EAUG   =  442.899                                                            
   DEXC   =    0.000                                                            
   RMAX   =    2.551    core radius for proj-oper                               
   RAUG   =    1.300    factor for augmentation sphere                          
   RDEP   =    2.650    radius for radial grids                                 
   RDEPT  =    2.039    core radius for aug-charge                              
                                                                                
   Atomic configuration                                                         
   16 entries                                                                   
     n  l   j            E        occ.                                          
     1  0  0.50    -90639.6581   2.0000                                         
     2  0  0.50    -16282.4666   2.0000                                         
     2  1  1.50    -13922.8286   6.0000                                         
     3  0  0.50     -3930.4763   2.0000                                         
     3  1  1.50     -3256.7013   6.0000                                         
     3  2  2.50     -2581.6168  10.0000                                         
     4  0  0.50      -902.2614   2.0000                                         
     4  1  1.50      -681.5915   6.0000                                         
     4  2  2.50      -429.8249  10.0000                                         
     4  3  3.50      -152.6004  14.0000                                         
     5  0  0.50      -157.7156   2.0000                                         
     5  1  1.50       -95.8054   6.0000                                         
     5  2  2.50       -27.0806  10.0000                                         
     6  0  0.50       -14.4732   2.0000                                         
     6  1  1.50        -4.5702   3.0000                                         
     5  3  2.50        -2.7212   0.0000                                         
   Description                                                                  
     l       E           TYP  RCUT    TYP  RCUT                                 
     2    -27.0805982     23  2.500                                             
     2     -1.3605826     23  2.500                                             
     0    -14.4732271     23  2.500                                             
     0      6.8029130     23  2.500                                             
     1     -4.5701651     23  2.500                                             
     1     13.6058260     23  2.500                                             
     3     -1.3605826      7  2.500                                             
  local pseudopotential read in
  partial core-charges read in
  partial kinetic energy density read in
  atomic valenz-charges read in
  non local Contribution for L=           2  read in
    real space projection operators read in
  non local Contribution for L=           2  read in
    real space projection operators read in
  non local Contribution for L=           0  read in
    real space projection operators read in
  non local Contribution for L=           0  read in
    real space projection operators read in
  non local Contribution for L=           1  read in
    real space projection operators read in
  non local Contribution for L=           1  read in
    real space projection operators read in
    PAW grid and wavefunctions read in
 
   number of l-projection  operators is LMAX  =           6
   number of lm-projection operators is LMMAX =          18
 
 POTCAR:    PAW_PBE Li_sv 10Sep2004               
   VRHFIN =Li: 1s2s2p                                                           
   LEXCH  = PE                                                                  
   EATOM  =   202.7858 eV,   14.9043 Ry                                         
                                                                                
   TITEL  = PAW_PBE Li_sv 10Sep2004                                             
   LULTRA =        F    use ultrasoft PP ?                                      
   IUNSCR =        0    unscreen: 0-lin 1-nonlin 2-no                           
   RPACOR =    0.000    partial core radius                                     
   POMASS =    7.010; ZVAL   =    3.000    mass and valenz                      
   RCORE  =    1.700    outmost cutoff radius                                   
   RWIGS  =    2.050; RWIGS  =    1.085    wigner-seitz radius (au A)           
   ENMAX  =  499.034; ENMIN  =  374.276 eV                                      
   ICORE  =        2    local potential                                         
   LCOR   =        T    correct aug charges                                     
   LPAW   =        T    paw PP                                                  
   EAUG   =  628.945                                                            
   RMAX   =    1.732    core radius for proj-oper                               
   RAUG   =    1.300    factor for augmentation sphere                          
   RDEP   =    1.728    radius for radial grids                                 
   RDEPT  =    1.329    core radius for aug-charge                              
                                                                                
   Atomic configuration                                                         
    4 entries                                                                   
     n  l   j            E        occ.                                          
     1  0  0.50       -51.8549   2.0000                                         
     2  0  0.50        -2.8742   1.0000                                         
     2  1  0.50        -1.3606   0.0000                                         
     3  2  1.50        -1.3606   0.0000                                         
   Description                                                                  
     l       E           TYP  RCUT    TYP  RCUT                                 
     0    -51.8548813     23  1.400                                             
     0     -2.8742052     23  1.700                                             
     1     -1.3605826     23  1.400                                             
     2     -1.3605826     23  1.400                                             
  local pseudopotential read in
  atomic valenz-charges read in
  non local Contribution for L=           0  read in
    real space projection operators read in
  non local Contribution for L=           0  read in
    real space projection operators read in
  non local Contribution for L=           1  read in
    real space projection operators read in
    PAW grid and wavefunctions read in
 
   number of l-projection  operators is LMAX  =           3
   number of lm-projection operators is LMMAX =           5
 
 POTCAR:    PAW_PBE Na_pv 19Sep2006               
   VRHFIN =Na: p6s1                                                             
   LEXCH  = PE                                                                  
   EATOM  =   766.0439 eV,   56.3026 Ry                                         
                                                                                
   TITEL  = PAW_PBE Na_pv 19Sep2006                                             
   LULTRA =        F    use ultrasoft PP ?                                      
   IUNSCR =        1    unscreen: 0-lin 1-nonlin 2-no                           
   RPACOR =    1.800    partial core radius                                     
   POMASS =   22.990; ZVAL   =    7.000    mass and valenz                      
   RCORE  =    2.200    outmost cutoff radius                                   
   RWIGS  =    2.200; RWIGS  =    1.164    wigner-seitz radius (au A)           
   ENMAX  =  259.561; ENMIN  =  194.671 eV                                      
   ICORE  =        2    local potential                                         
   LCOR   =        T    correct aug charges                                     
   LPAW   =        T    paw PP                                                  
   EAUG   =  368.056                                                            
   DEXC   =    0.000                                                            
   RMAX   =    2.245    core radius for proj-oper                               
   RAUG   =    1.300    factor for augmentation sphere                          
   RDEP   =    2.259    radius for radial grids                                 
   RDEPT  =    1.738    core radius for aug-charge                              
                                                                                
   Atomic configuration                                                         
    5 entries                                                                   
     n  l   j            E        occ.                                          
     1  0  0.50     -1033.6933   2.0000                                         
     2  0  0.50       -56.7526   2.0000                                         
     2  1  1.50       -28.6721   6.0000                                         
     3  0  0.50        -2.7440   1.0000                                         
     3  2  1.50        -1.3606   0.0000                                         
   Description                                                                  
     l       E           TYP  RCUT    TYP  RCUT                                 
     1    -28.6720912     23  2.000                                             
     1      6.8029130     23  2.000                                             
     0     -2.7439560     23  2.200                                             
     0     34.0145650     23  2.200                                             
     2     -1.3605826     23  2.200                                             
  local pseudopotential read in
  partial core-charges read in
  partial kinetic energy density read in
  atomic valenz-charges read in
  non local Contribution for L=           1  read in
    real space projection operators read in
  non local Contribution for L=           1  read in
    real space projection operators read in
  non local Contribution for L=           0  read in
    real space projection operators read in
  non local Contribution for L=           0  read in
    real space projection operators read in
    PAW grid and wavefunctions read in
 
   number of l-projection  operators is LMAX  =           4
   number of lm-projection operators is LMMAX =           8
 
  PAW_PBE Bi_d 06Sep2000                :
 energy of atom  1       EATOM=-1959.2045
 kinetic energy error for atom=    0.0040 (will be added to EATOM!!)
  PAW_PBE Li_sv 10Sep2004               :
 energy of atom  2       EATOM= -202.7858
 kinetic energy error for atom=    0.0130 (will be added to EATOM!!)
  PAW_PBE Na_pv 19Sep2006               :
 energy of atom  3       EATOM= -766.0439
 kinetic energy error for atom=    0.0019 (will be added to EATOM!!)
 
 
 POSCAR: Na Bi Li                                
  positions in direct lattice
  No initial velocities read in
 exchange correlation table for  LEXCH =        8
   RHO(1)=    0.500       N(1)  =     2000
   RHO(2)=  100.500       N(2)  =     4000
 


--------------------------------------------------------------------------------------------------------


 ion  position               nearest neighbor table
   1  0.250  0.250  0.250-   3 2.98   2 2.98   2 2.98   2 2.98   2 2.98   3 2.98   3 2.98   3 2.98

   2  0.000  0.000  0.000-   1 2.98   1 2.98   1 2.98   1 2.98
   3  0.500  0.500  0.500-   1 2.98   1 2.98   1 2.98   1 2.98
   4  0.750  0.750  0.750-
 
  LATTYP: Found a face centered cubic cell.
 ALAT       =     6.8733560000
  
  Lattice vectors:
  
 A1 = (   0.0000000000,   3.4366780000,   3.4366780000)
 A2 = (   3.4366780000,   0.0000000000,   3.4366780000)
 A3 = (   3.4366780000,   3.4366780000,   0.0000000000)


Analysis of symmetry for initial positions (statically):
=====================================================================
 Subroutine PRICEL returns:
 Original cell was already a primitive cell.
 

 Routine SETGRP: Setting up the symmetry group for a 
 face centered cubic supercell.


 Subroutine GETGRP returns: Found 48 space group operations
 (whereof 24 operations were pure point group operations)
 out of a pool of 48 trial point group operations.


The static configuration has the point symmetry T_d .
 The point group associated with its full space group is O_h .


Analysis of symmetry for dynamics (positions and initial velocities):
=====================================================================
 Subroutine PRICEL returns:
 Original cell was already a primitive cell.
 

 Routine SETGRP: Setting up the symmetry group for a 
 face centered cubic supercell.


 Subroutine GETGRP returns: Found 48 space group operations
 (whereof 24 operations were pure point group operations)
 out of a pool of 48 trial point group operations.


The dynamic configuration has the point symmetry T_d .
 The point group associated with its full space group is O_h .


 Subroutine INISYM returns: Found 48 space group operations
 (whereof 24 operations are pure point group operations),
 and found     1 'primitive' translations

 
 
 KPOINTS: KPOINTS                                 

Automatic generation of k-mesh.
Space group operators:
 irot       det(A)        alpha          n_x          n_y          n_z        tau_x        tau_y        tau_z
    1     1.000000     0.000000     1.000000     0.000000     0.000000     0.000000     0.000000     0.000000
    2     1.000000   120.000000    -0.577350    -0.577350    -0.577350     0.000000     0.000000     0.000000
    3     1.000000   120.000000     0.577350     0.577350     0.577350     0.000000     0.000000     0.000000
    4    -1.000000    90.000000     0.000000     0.000000    -1.000000     0.000000     0.000000     0.000000
    5    -1.000000   180.000000     0.000000     0.707107     0.707107     0.000000     0.000000     0.000000
    6    -1.000000    90.000000     0.000000     1.000000     0.000000     0.000000     0.000000     0.000000
    7     1.000000   180.000000     0.000000     0.000000     1.000000     0.000000     0.000000     0.000000
    8     1.000000   120.000000    -0.577350     0.577350     0.577350     0.000000     0.000000     0.000000
    9     1.000000   120.000000    -0.577350     0.577350    -0.577350     0.000000     0.000000     0.000000
   10    -1.000000    90.000000     0.000000     0.000000     1.000000     0.000000     0.000000     0.000000
   11    -1.000000    90.000000    -1.000000     0.000000     0.000000     0.000000     0.000000     0.000000
   12    -1.000000   180.000000     0.707107     0.000000     0.707107     0.000000     0.000000     0.000000
   13     1.000000   120.000000     0.577350    -0.577350     0.577350     0.000000     0.000000     0.000000
   14     1.000000   120.000000    -0.577350    -0.577350     0.577350     0.000000     0.000000     0.000000
   15     1.000000   180.000000     1.000000     0.000000     0.000000     0.000000     0.000000     0.000000
   16    -1.000000    90.000000     0.000000    -1.000000     0.000000     0.000000     0.000000     0.000000
   17    -1.000000   180.000000     0.707107     0.707107     0.000000     0.000000     0.000000     0.000000
   18    -1.000000    90.000000     1.000000     0.000000     0.000000     0.000000     0.000000     0.000000
   19     1.000000   120.000000     0.577350    -0.577350    -0.577350     0.000000     0.000000     0.000000
   20     1.000000   180.000000     0.000000     1.000000     0.000000     0.000000     0.000000     0.000000
   21     1.000000   120.000000     0.577350     0.577350    -0.577350     0.000000     0.000000     0.000000
   22    -1.000000   180.000000     0.000000    -0.707107     0.707107     0.000000     0.000000     0.000000
   23    -1.000000   180.000000     0.707107    -0.707107     0.000000     0.000000     0.000000     0.000000
   24    -1.000000   180.000000     0.707107     0.000000    -0.707107     0.000000     0.000000     0.000000
   25    -1.000000     0.000000     1.000000     0.000000     0.000000     0.500000     0.500000     0.500000
   26    -1.000000   120.000000    -0.577350    -0.577350    -0.577350     0.500000     0.500000     0.500000
   27    -1.000000   120.000000     0.577350     0.577350     0.577350     0.500000     0.500000     0.500000
   28     1.000000    90.000000     0.000000     0.000000    -1.000000     0.500000     0.500000     0.500000
   29     1.000000   180.000000     0.000000     0.707107     0.707107     0.500000     0.500000     0.500000
   30     1.000000    90.000000     0.000000     1.000000     0.000000     0.500000     0.500000     0.500000
   31    -1.000000   180.000000     0.000000     0.000000     1.000000     0.500000     0.500000     0.500000
   32    -1.000000   120.000000    -0.577350     0.577350     0.577350     0.500000     0.500000     0.500000
   33    -1.000000   120.000000    -0.577350     0.577350    -0.577350     0.500000     0.500000     0.500000
   34     1.000000    90.000000     0.000000     0.000000     1.000000     0.500000     0.500000     0.500000
   35     1.000000    90.000000    -1.000000     0.000000     0.000000     0.500000     0.500000     0.500000
   36     1.000000   180.000000     0.707107     0.000000     0.707107     0.500000     0.500000     0.500000
   37    -1.000000   120.000000     0.577350    -0.577350     0.577350     0.500000     0.500000     0.500000
   38    -1.000000   120.000000    -0.577350    -0.577350     0.577350     0.500000     0.500000     0.500000
   39    -1.000000   180.000000     1.000000     0.000000     0.000000     0.500000     0.500000     0.500000
   40     1.000000    90.000000     0.000000    -1.000000     0.000000     0.500000     0.500000     0.500000
   41     1.000000   180.000000     0.707107     0.707107     0.000000     0.500000     0.500000     0.500000
   42     1.000000    90.000000     1.000000     0.000000     0.000000     0.500000     0.500000     0.500000
   43    -1.000000   120.000000     0.577350    -0.577350    -0.577350     0.500000     0.500000     0.500000
   44    -1.000000   180.000000     0.000000     1.000000     0.000000     0.500000     0.500000     0.500000
   45    -1.000000   120.000000     0.577350     0.577350    -0.577350     0.500000     0.500000     0.500000
   46     1.000000   180.000000     0.000000    -0.707107     0.707107     0.500000     0.500000     0.500000
   47     1.000000   180.000000     0.707107    -0.707107     0.000000     0.500000     0.500000     0.500000
   48     1.000000   180.000000     0.707107     0.000000    -0.707107     0.500000     0.500000     0.500000
 
 Subroutine IBZKPT returns following result:
 ===========================================
 
 Found     29 irreducible k-points:
 
 Following reciprocal coordinates:
            Coordinates               Weight
  0.000000  0.000000  0.000000      1.000000
  0.125000  0.000000  0.000000      8.000000
  0.250000  0.000000  0.000000      8.000000
  0.375000  0.000000  0.000000      8.000000
  0.500000  0.000000  0.000000      4.000000
  0.125000  0.125000  0.000000      6.000000
  0.250000  0.125000  0.000000     24.000000
  0.375000  0.125000  0.000000     24.000000
  0.500000  0.125000  0.000000     24.000000
 -0.375000  0.125000  0.000000     24.000000
 -0.250000  0.125000  0.000000     24.000000
 -0.125000  0.125000  0.000000     12.000000
  0.250000  0.250000  0.000000      6.000000
  0.375000  0.250000  0.000000     24.000000
  0.500000  0.250000  0.000000     24.000000
 -0.375000  0.250000  0.000000     24.000000
 -0.250000  0.250000  0.000000     12.000000
  0.375000  0.375000  0.000000      6.000000
  0.500000  0.375000  0.000000     24.000000
 -0.375000  0.375000  0.000000     12.000000
  0.500000  0.500000  0.000000      3.000000
  0.375000  0.250000  0.125000     24.000000
  0.500000  0.250000  0.125000     48.000000
 -0.375000  0.250000  0.125000     24.000000
  0.500000  0.375000  0.125000     24.000000
 -0.375000  0.375000  0.125000     48.000000
 -0.250000  0.375000  0.125000     24.000000
 -0.375000  0.500000  0.125000     12.000000
 -0.250000  0.500000  0.250000      6.000000
 
 Following cartesian coordinates:
            Coordinates               Weight
  0.000000  0.000000  0.000000      1.000000
 -0.018186  0.018186  0.018186      8.000000
 -0.036372  0.036372  0.036372      8.000000
 -0.054559  0.054559  0.054559      8.000000
 -0.072745  0.072745  0.072745      4.000000
  0.000000  0.000000  0.036372      6.000000
 -0.018186  0.018186  0.054559     24.000000
 -0.036372  0.036372  0.072745     24.000000
 -0.054559  0.054559  0.090931     24.000000
  0.072745 -0.072745 -0.036372     24.000000
  0.054559 -0.054559 -0.018186     24.000000
  0.036372 -0.036372  0.000000     12.000000
  0.000000  0.000000  0.072745      6.000000
 -0.018186  0.018186  0.090931     24.000000
 -0.036372  0.036372  0.109117     24.000000
  0.090931 -0.090931 -0.018186     24.000000
  0.072745 -0.072745  0.000000     12.000000
  0.000000  0.000000  0.109117      6.000000
 -0.018186  0.018186  0.127303     24.000000
  0.109117 -0.109117  0.000000     12.000000
  0.000000  0.000000  0.145489      3.000000
  0.000000  0.036372  0.072745     24.000000
 -0.018186  0.054559  0.090931     48.000000
  0.109117 -0.072745 -0.036372     24.000000
 -0.000000  0.036372  0.109117     24.000000
  0.127303 -0.090931 -0.018186     48.000000
  0.109117 -0.072745 -0.000000     24.000000
  0.145489 -0.109117  0.000000     12.000000
  0.145489 -0.072745  0.000000      6.000000
 


--------------------------------------------------------------------------------------------------------




 Dimension of arrays:
   k-points           NKPTS =     29   k-points in BZ     NKDIM =     29   number of bands    NBANDS=     18
   number of dos      NEDOS =    301   number of ions     NIONS =      4
   non local maximal  LDIM  =      6   non local SUM 2l+1 LMDIM =     18
   total plane-waves  NPLWV =  46656
   max r-space proj   IRMAX =      1   max aug-charges    IRDMAX=  25596
   dimension x,y,z NGX =    36 NGY =   36 NGZ =   36
   dimension x,y,z NGXF=    72 NGYF=   72 NGZF=   72
   support grid    NGXF=    72 NGYF=   72 NGZF=   72
   ions per type =               1   2   1
   NGX,Y,Z   is equivalent  to a cutoff of  12.31, 12.31, 12.31 a.u.
   NGXF,Y,Z  is equivalent  to a cutoff of  24.63, 24.63, 24.63 a.u.

 SYSTEM =  unknown system                          
 POSCAR =  Na Bi Li                                

 Startparameter for this run:
   NWRITE =      2    write-flag & timer
   PREC   = acc       normal or accurate (medium, high low for compatibility)
   ISTART =      0    job   : 0-new  1-cont  2-samecut
   ICHARG =      2    charge: 1-file 2-atom 10-const
   ISPIN  =      1    spin polarized calculation?
   LNONCOLLINEAR =      F non collinear calculations
   LSORBIT =      F    spin-orbit coupling
   INIWAV =      1    electr: 0-lowe 1-rand  2-diag
   LASPH  =      F    aspherical Exc in radial PAW
   METAGGA=      F    non-selfconsistent MetaGGA calc.

 Electronic Relaxation 1
   ENCUT  =  520.0 eV  38.22 Ry    6.18 a.u.   9.04  9.04  9.04*2*pi/ulx,y,z
   ENINI  =  520.0     initial cutoff
   ENAUG  =  628.9 eV  augmentation charge cutoff
   NELM   =     60;   NELMIN=  5; NELMDL= -5     # of ELM steps 
   EDIFF  = 0.1E-04   stopping-criterion for ELM
   LREAL  =      F    real-space projection
   NLSPLINE    = F    spline interpolate recip. space projectors
   LCOMPAT=      F    compatible to vasp.4.4
   GGA_COMPAT  = T    GGA compatible to vasp.4.4-vasp.4.6
   LMAXPAW     = -100 max onsite density
   LMAXMIX     =    2 max onsite mixed and CHGCAR
   VOSKOWN=      0    Vosko Wilk Nusair interpolation
   ROPT   =    0.00000   0.00000   0.00000
 Ionic relaxation
   EDIFFG = -.1E-02   stopping-criterion for IOM
   NSW    =    100    number of steps for IOM
   NBLOCK =      1;   KBLOCK =    100    inner block; outer block 
   IBRION =      2    ionic relax: 0-MD 1-quasi-New 2-CG
   NFREE  =      1    steps in history (QN), initial steepest desc. (CG)
   ISIF   =      3    stress and relaxation
   IWAVPR =     11    prediction:  0-non 1-charg 2-wave 3-comb
   ISYM   =      2    0-nonsym 1-usesym 2-fastsym
   LCORR  =      T    Harris-Foulkes like correction to forces

   POTIM  = 0.5000    time-step for ionic-motion
   TEIN   =    0.0    initial temperature
   TEBEG  =    0.0;   TEEND  =   0.0 temperature during run
   SMASS  =  -3.00    Nose mass-parameter (am)
   estimated Nose-frequenzy (Omega)   =  0.10E-29 period in steps =****** mass=  -0.540E-27a.u.
   SCALEE = 1.0000    scale energy and forces
   NPACO  =    256;   APACO  = 16.0  distance and # of slots for P.C.
   PSTRESS=    0.0 pullay stress

  Mass of Ions in am
   POMASS = 208.98  7.01 22.99
  Ionic Valenz
   ZVAL   =  15.00  3.00  7.00
  Atomic Wigner-Seitz radii
   RWIGS  =  -1.00 -1.00 -1.00
  virtual crystal weights 
   VCA    =   1.00  1.00  1.00
   NELECT =      28.0000    total number of electrons
   NUPDOWN=      -1.0000    fix difference up-down

 DOS related values:
   EMIN   =  10.00;   EMAX   =-10.00  energy-range for DOS
   EFERMI =   0.00
   ISMEAR =     0;   SIGMA  =   0.05  broadening in eV -4-tet -1-fermi 0-gaus

 Electronic relaxation 2 (details)
   IALGO  =     38    algorithm
   LDIAG  =      T    sub-space diagonalisation (order eigenvalues)
   LSUBROT=      F    optimize rotation matrix (better conditioning)
   TURBO    =      0    0=normal 1=particle mesh
   IRESTART =      0    0=no restart 2=restart with 2 vectors
   NREBOOT  =      0    no. of reboots
   NMIN     =      0    reboot dimension
   EREF     =   0.00    reference energy to select bands
   IMIX   =      4    mixing-type and parameters
     AMIX     =   0.40;   BMIX     =  1.00
     AMIX_MAG =   1.60;   BMIX_MAG =  1.00
     AMIN     =   0.10
     WC   =   100.;   INIMIX=   1;  MIXPRE=   1;  MAXMIX= -45

 Intra band minimization:
   WEIMIN = 0.0010     energy-eigenvalue tresh-hold
   EBREAK =  0.14E-06  absolut break condition
   DEPER  =   0.30     relativ break condition  

   TIME   =   0.40     timestep for ELM

  volume/ion in A,a.u.               =      20.29       136.96
  Fermi-wavevector in a.u.,A,eV,Ry     =   1.148097  2.169589 17.934210  1.318127
  Thomas-Fermi vector in A             =   2.284774
 
 Write flags
   LWAVE        =      F    write WAVECAR
   LDOWNSAMPLE  =      F    k-point downsampling of WAVECAR
   LCHARG       =      F    write CHGCAR
   LVTOT        =      F    write LOCPOT, total local potential
   LVHAR        =      F    write LOCPOT, Hartree potential only
   LELF         =      F    write electronic localiz. function (ELF)
   LORBIT       =      0    0 simple, 1 ext, 2 COOP (PROOUT), +10 PAW based schemes


 Dipole corrections
   LMONO  =      F    monopole corrections only (constant potential shift)
   LDIPOL =      F    correct potential (dipole corrections)
   IDIPOL =      0    1-x, 2-y, 3-z, 4-all directions 
   EPSILON=  1.0000000 bulk dielectric constant

 Exchange correlation treatment:
   GGA     =    PE    GGA type
   LEXCH   =     8    internal setting for exchange type
   VOSKOWN=      0    Vosko Wilk Nusair interpolation
   LHFCALC =     F    Hartree Fock is set to
   LHFONE  =     F    Hartree Fock one center treatment
   AEXX    =    0.0000 exact exchange contribution

 Linear response parameters
   LEPSILON=     F    determine dielectric tensor
   LRPA    =     F    only Hartree local field effects (RPA)
   LNABLA  =     F    use nabla operator in PAW spheres
   LVEL    =     F    velocity operator in full k-point grid
   LINTERFAST=   F  fast interpolation
   KINTER  =     0    interpolate to denser k-point grid
   CSHIFT  =0.1000    complex shift for real part using Kramers Kronig
   OMEGAMAX=  -1.0    maximum frequency
   DEG_THRESHOLD= 0.2000000E-02 threshold for treating states as degnerate
   RTIME   =   -0.100 relaxation time in fs
  (WPLASMAI=    0.000 imaginary part of plasma frequency in eV, 0.658/RTIME)
   DFIELD  = 0.0000000 0.0000000 0.0000000 field for delta impulse in time
 
 Orbital magnetization related:
   ORBITALMAG=     F  switch on orbital magnetization
   LCHIMAG   =     F  perturbation theory with respect to B field
   DQ        =  0.001000  dq finite difference perturbation B field
   LLRAUG    =     F  two centre corrections for induced B field



--------------------------------------------------------------------------------------------------------


 conjugate gradient relaxation of ions
 charge density and potential will be updated during run
 non-spin polarized calculation
 Variant of blocked Davidson
 Davidson routine will perform the subspace rotation
 perform sub-space diagonalisation
    after iterative eigenvector-optimisation
 modified Broyden-mixing scheme, WC =      100.0
 initial mixing is a Kerker type mixing with AMIX =  0.4000 and BMIX =      1.0000
 Hartree-type preconditioning will be used
 using additional bands            4
 reciprocal scheme for non local part
 use partial core corrections
 calculate Harris-corrections to forces 
   (improved forces if not selfconsistent)
 use gradient corrections 
 use of overlap-Matrix (Vanderbilt PP)
 Gauss-broadening in eV      SIGMA  =   0.05


--------------------------------------------------------------------------------------------------------


  energy-cutoff  :      520.00
  volume of cell :       81.18
      direct lattice vectors                 reciprocal lattice vectors
     0.000000000  3.436678000  3.436678000    -0.145489336  0.145489336  0.145489336
     3.436678000  0.000000000  3.436678000     0.145489336 -0.145489336  0.145489336
     3.436678000  3.436678000  0.000000000     0.145489336  0.145489336 -0.145489336

  length of vectors
     4.860196637  4.860196637  4.860196637     0.251994922  0.251994922  0.251994922


 
 k-points in units of 2pi/SCALE and weight: KPOINTS                                 
   0.00000000  0.00000000  0.00000000       0.002
  -0.01818617  0.01818617  0.01818617       0.016
  -0.03637233  0.03637233  0.03637233       0.016
  -0.05455850  0.05455850  0.05455850       0.016
  -0.07274467  0.07274467  0.07274467       0.008
   0.00000000  0.00000000  0.03637233       0.012
  -0.01818617  0.01818617  0.05455850       0.047
  -0.03637233  0.03637233  0.07274467       0.047
  -0.05455850  0.05455850  0.09093083       0.047
   0.07274467 -0.07274467 -0.03637233       0.047
   0.05455850 -0.05455850 -0.01818617       0.047
   0.03637233 -0.03637233  0.00000000       0.023
   0.00000000  0.00000000  0.07274467       0.012
  -0.01818617  0.01818617  0.09093083       0.047
  -0.03637233  0.03637233  0.10911700       0.047
   0.09093083 -0.09093083 -0.01818617       0.047
   0.07274467 -0.07274467  0.00000000       0.023
   0.00000000  0.00000000  0.10911700       0.012
  -0.01818617  0.01818617  0.12730317       0.047
   0.10911700 -0.10911700  0.00000000       0.023
   0.00000000  0.00000000  0.14548934       0.006
   0.00000000  0.03637233  0.07274467       0.047
  -0.01818617  0.05455850  0.09093083       0.094
   0.10911700 -0.07274467 -0.03637233       0.047
  -0.00000000  0.03637233  0.10911700       0.047
   0.12730317 -0.09093083 -0.01818617       0.094
   0.10911700 -0.07274467 -0.00000000       0.047
   0.14548934 -0.10911700  0.00000000       0.023
   0.14548934 -0.07274467  0.00000000       0.012
 
 k-points in reciprocal lattice and weights: KPOINTS                                 
   0.00000000  0.00000000  0.00000000       0.002
   0.12500000  0.00000000  0.00000000       0.016
   0.25000000  0.00000000  0.00000000       0.016
   0.37500000  0.00000000  0.00000000       0.016
   0.50000000  0.00000000  0.00000000       0.008
   0.12500000  0.12500000  0.00000000       0.012
   0.25000000  0.12500000  0.00000000       0.047
   0.37500000  0.12500000  0.00000000       0.047
   0.50000000  0.12500000  0.00000000       0.047
  -0.37500000  0.12500000  0.00000000       0.047
  -0.25000000  0.12500000  0.00000000       0.047
  -0.12500000  0.12500000  0.00000000       0.023
   0.25000000  0.25000000  0.00000000       0.012
   0.37500000  0.25000000  0.00000000       0.047
   0.50000000  0.25000000  0.00000000       0.047
  -0.37500000  0.25000000  0.00000000       0.047
  -0.25000000  0.25000000  0.00000000       0.023
   0.37500000  0.37500000  0.00000000       0.012
   0.50000000  0.37500000  0.00000000       0.047
  -0.37500000  0.37500000  0.00000000       0.023
   0.50000000  0.50000000  0.00000000       0.006
   0.37500000  0.25000000  0.12500000       0.047
   0.50000000  0.25000000  0.12500000       0.094
  -0.37500000  0.25000000  0.12500000       0.047
   0.50000000  0.37500000  0.12500000       0.047
  -0.37500000  0.37500000  0.12500000       0.094
  -0.25000000  0.37500000  0.12500000       0.047
  -0.37500000  0.50000000  0.12500000       0.023
  -0.25000000  0.50000000  0.25000000       0.012
 
 position of ions in fractional coordinates (direct lattice) 
   0.25000015  0.25000015  0.25000015
   0.00000000  0.00000000  0.00000000
   0.49999884  0.49999884  0.49999884
   0.75000044  0.75000044  0.75000044
 
 position of ions in cartesian coordinates  (Angst):
   1.71834000  1.71834000  1.71834000
   0.00000000  0.00000000  0.00000000
   3.43667000  3.43667000  3.43667000
   5.15502000  5.15502000  5.15502000
 


--------------------------------------------------------------------------------------------------------


 k-point  1 :   0.0000 0.0000 0.0000  plane waves:    2133
 k-point  2 :   0.1250 0.0000 0.0000  plane waves:    2169
 k-point  3 :   0.2500 0.0000 0.0000  plane waves:    2178
 k-point  4 :   0.3750 0.0000 0.0000  plane waves:    2184
 k-point  5 :   0.5000 0.0000 0.0000  plane waves:    2186
 k-point  6 :   0.1250 0.1250 0.0000  plane waves:    2169
 k-point  7 :   0.2500 0.1250 0.0000  plane waves:    2176
 k-point  8 :   0.3750 0.1250 0.0000  plane waves:    2162
 k-point  9 :   0.5000 0.1250 0.0000  plane waves:    2182
 k-point 10 :  -0.3750 0.1250 0.0000  plane waves:    2193
 k-point 11 :  -0.2500 0.1250 0.0000  plane waves:    2183
 k-point 12 :  -0.1250 0.1250 0.0000  plane waves:    2183
 k-point 13 :   0.2500 0.2500 0.0000  plane waves:    2181
 k-point 14 :   0.3750 0.2500 0.0000  plane waves:    2181
 k-point 15 :   0.5000 0.2500 0.0000  plane waves:    2188
 k-point 16 :  -0.3750 0.2500 0.0000  plane waves:    2194
 k-point 17 :  -0.2500 0.2500 0.0000  plane waves:    2181
 k-point 18 :   0.3750 0.3750 0.0000  plane waves:    2185
 k-point 19 :   0.5000 0.3750 0.0000  plane waves:    2187
 k-point 20 :  -0.3750 0.3750 0.0000  plane waves:    2201
 k-point 21 :   0.5000 0.5000 0.0000  plane waves:    2200
 k-point 22 :   0.3750 0.2500 0.1250  plane waves:    2176
 k-point 23 :   0.5000 0.2500 0.1250  plane waves:    2194
 k-point 24 :  -0.3750 0.2500 0.1250  plane waves:    2204
 k-point 25 :   0.5000 0.3750 0.1250  plane waves:    2183
 k-point 26 :  -0.3750 0.3750 0.1250  plane waves:    2194
 k-point 27 :  -0.2500 0.3750 0.1250  plane waves:    2198
 k-point 28 :  -0.3750 0.5000 0.1250  plane waves:    2196
 k-point 29 :  -0.2500 0.5000 0.2500  plane waves:    2208

 maximum and minimum number of plane-waves per node :       322      295

 maximum number of plane-waves:      2208
 maximum index in each direction: 
   IXMAX=    9   IYMAX=    9   IZMAX=    9
   IXMIN=   -9   IYMIN=   -9   IZMIN=   -9


 parallel 3D FFT for wavefunctions:
    minimum data exchange during FFTs selected (reduces bandwidth)
 parallel 3D FFT for charge:
    minimum data exchange during FFTs selected (reduces bandwidth)


 total amount of memory used by VASP MPI-rank0    42944. kBytes
=======================================================================

   base      :      30000. kBytes
   nonl-proj :       3953. kBytes
   fftplans  :       2164. kBytes
   grid      :       4040. kBytes
   one-center:         15. kBytes
   wavefun   :       2772. kBytes
 
     INWAV:  cpu time    0.0000: real time    0.0002
 Broyden mixing: mesh for mixing (old mesh)
   NGX = 19   NGY = 19   NGZ = 19
  (NGX  = 72   NGY  = 72   NGZ  = 72)
  gives a total of   6859 points

 initial charge density was supplied:
 charge density of overlapping atoms calculated
 number of electron      28.0000000 magnetization 
 keeping initial charge density in first step


--------------------------------------------------------------------------------------------------------


 Maximum index for augmentation-charges         3560 (set IRDMAX)


--------------------------------------------------------------------------------------------------------


 First call to EWALD:  gamma=   0.409
 Maximum number of real-space cells 3x 3x 3
 Maximum number of reciprocal cells 3x 3x 3

    FEWALD:  cpu time    0.0015: real time    0.0016


--------------------------------------- Iteration      1(   1)  ---------------------------------------


    POTLOK:  cpu time    0.0337: real time    0.0352
    SETDIJ:  cpu time    0.0041: real time    0.0041
     EDDAV:  cpu time    0.1402: real time    0.1404
       DOS:  cpu time    0.0005: real time    0.0005
    --------------------------------------------
      LOOP:  cpu time    0.1784: real time    0.1802

 eigenvalue-minimisations  :  1044
 total energy-change (2. order) : 0.2276870E+03  (-0.1434510E+04)
 number of electron      28.0000000 magnetization 
 augmentation part       28.0000000 magnetization 

 Free energy of the ion-electron system (eV)
  ---------------------------------------------------
  alpha Z        PSCENC =        59.72485723
  Ewald energy   TEWEN  =     -1884.41398682
  -Hartree energ DENC   =      -861.06295420
  -exchange      EXHF   =         0.00000000
  -V(xc)+E(xc)   XCENC  =        98.70397757
  PAW double counting   =      2337.22285842    -2427.02081637
  entropy T*S    EENTRO =        -0.00089117
  eigenvalues    EBANDS =      -226.25425226
  atomic energy  EATOM  =      3130.78817564
  Solvation  Ediel_sol  =         0.00000000
  ---------------------------------------------------
  free energy    TOTEN  =       227.68696804 eV

  energy without entropy =      227.68785921  energy(sigma->0) =      227.68741363


--------------------------------------------------------------------------------------------------------




--------------------------------------- Iteration      1(   2)  ---------------------------------------


     EDDAV:  cpu time    0.1281: real time    0.1302
       DOS:  cpu time    0.0004: real time    0.0004
    --------------------------------------------
      LOOP:  cpu time    0.1285: real time    0.1306

 eigenvalue-minimisations  :  1048
 total energy-change (2. order) :-0.2186618E+03  (-0.2157959E+03)
 number of electron      28.0000000 magnetization 
 augmentation part       28.0000000 magnetization 

 Free energy of the ion-electron system (eV)
  ---------------------------------------------------
  alpha Z        PSCENC =        59.72485723
  Ewald energy   TEWEN  =     -1884.41398682
  -Hartree energ DENC   =      -861.06295420
  -exchange      EXHF   =         0.00000000
  -V(xc)+E(xc)   XCENC  =        98.70397757
  PAW double counting   =      2337.22285842    -2427.02081637
  entropy T*S    EENTRO =        -0.00011056
  eigenvalues    EBANDS =      -444.91681367
  atomic energy  EATOM  =      3130.78817564
  Solvation  Ediel_sol  =         0.00000000
  ---------------------------------------------------
  free energy    TOTEN  =         9.02518724 eV

  energy without entropy =        9.02529780  energy(sigma->0) =        9.02524252


--------------------------------------------------------------------------------------------------------




--------------------------------------- Iteration      1(   3)  ---------------------------------------


     EDDAV:  cpu time    0.1916: real time    0.1919
       DOS:  cpu time    0.0002: real time    0.0002
    --------------------------------------------
      LOOP:  cpu time    0.1918: real time    0.1921

 eigenvalue-minimisations  :  1784
 total energy-change (2. order) :-0.1872636E+02  (-0.1845863E+02)
 number of electron      28.0000000 magnetization 
 augmentation part       28.0000000 magnetization 

 Free energy of the ion-electron system (eV)
  ---------------------------------------------------
  alpha Z        PSCENC =        59.72485723
  Ewald energy   TEWEN  =     -1884.41398682
  -Hartree energ DENC   =      -861.06295420
  -exchange      EXHF   =         0.00000000
  -V(xc)+E(xc)   XCENC  =        98.70397757
  PAW double counting   =      2337.22285842    -2427.02081637
  entropy T*S    EENTRO =        -0.00000000
  eigenvalues    EBANDS =      -463.64328097
  atomic energy  EATOM  =      3130.78817564
  Solvation  Ediel_sol  =         0.00000000
  ---------------------------------------------------
  free energy    TOTEN  =        -9.70116950 eV

  energy without entropy =       -9.70116950  energy(sigma->0) =       -9.70116950


--------------------------------------------------------------------------------------------------------




--------------------------------------- Iteration      1(   4)  ---------------------------------------


     EDDAV:  cpu time    0.1855: real time    0.1858
       DOS:  cpu time    0.0002: real time    0.0002
    --------------------------------------------
      LOOP:  cpu time    0.1857: real time    0.1860

 eigenvalue-minimisations  :  1750
 total energy-change (2. order) :-0.1350216E+01  (-0.1340377E+01)
 number of electron      28.0000000 magnetization 
 augmentation part       28.0000000 magnetization 

 Free energy of the ion-electron system (eV)
  ---------------------------------------------------
  alpha Z        PSCENC =        59.72485723
  Ewald energy   TEWEN  =     -1884.41398682
  -Hartree energ DENC   =      -861.06295420
  -exchange      EXHF   =         0.00000000
  -V(xc)+E(xc)   XCENC  =        98.70397757
  PAW double counting   =      2337.22285842    -2427.02081637
  entropy T*S    EENTRO =        -0.00000000
  eigenvalues    EBANDS =      -464.99349717
  atomic energy  EATOM  =      3130.78817564
  Solvation  Ediel_sol  =         0.00000000
  ---------------------------------------------------
  free energy    TOTEN  =       -11.05138570 eV

  energy without entropy =      -11.05138570  energy(sigma->0) =      -11.05138570


--------------------------------------------------------------------------------------------------------




--------------------------------------- Iteration      1(   5)  ---------------------------------------


     EDDAV:  cpu time    0.1751: real time    0.1754
       DOS:  cpu time    0.0002: real time    0.0002
    CHARGE:  cpu time    0.0204: real time    0.0204
    MIXING:  cpu time    0.0025: real time    0.0025
    --------------------------------------------
      LOOP:  cpu time    0.1982: real time    0.1986

 eigenvalue-minimisations  :  1652
 total energy-change (2. order) :-0.1279209E+00  (-0.1278788E+00)
 number of electron      27.9999965 magnetization 
 augmentation part       12.1766698 magnetization 

 Broyden mixing:
  rms(total) = 0.20461E+00    rms(broyden)= 0.20447E+00
  rms(prec ) = 0.56134E+00
  weight for this iteration     100.00

 Free energy of the ion-electron system (eV)
  ---------------------------------------------------
  alpha Z        PSCENC =        59.72485723
  Ewald energy   TEWEN  =     -1884.41398682
  -Hartree energ DENC   =      -861.06295420
  -exchange      EXHF   =         0.00000000
  -V(xc)+E(xc)   XCENC  =        98.70397757
  PAW double counting   =      2337.22285842    -2427.02081637
  entropy T*S    EENTRO =        -0.00000000
  eigenvalues    EBANDS =      -465.12141812
  atomic energy  EATOM  =      3130.78817564
  Solvation  Ediel_sol  =         0.00000000
  ---------------------------------------------------
  free energy    TOTEN  =       -11.17930665 eV

  energy without entropy =      -11.17930665  energy(sigma->0) =      -11.17930665


--------------------------------------------------------------------------------------------------------




--------------------------------------- Iteration      1(   6)  ---------------------------------------


    POTLOK:  cpu time    0.0316: real time    0.0319
    SETDIJ:  cpu time    0.0032: real time    0.0032
     EDDAV:  cpu time    0.1637: real time    0.1638
       DOS:  cpu time    0.0002: real time    0.0002
    CHARGE:  cpu time    0.0200: real time    0.0200
    MIXING:  cpu time    0.0030: real time    0.0030
    --------------------------------------------
      LOOP:  cpu time    0.2217: real time    0.2221

 eigenvalue-minimisations  :  1458
 total energy-change (2. order) : 0.1240126E+00  (-0.1193960E-01)
 number of electron      27.9999965 magnetization 
 augmentation part       12.1992088 magnetization 

 Broyden mixing:
  rms(total) = 0.11056E+00    rms(broyden)= 0.11056E+00
  rms(prec ) = 0.31582E+00
  weight for this iteration     100.00

 eigenvalues of (default mixing * dielectric matrix)
  average eigenvalue GAMMA=   1.9980
  1.9980

 Free energy of the ion-electron system (eV)
  ---------------------------------------------------
  alpha Z        PSCENC =        59.72485723
  Ewald energy   TEWEN  =     -1884.41398682
  -Hartree energ DENC   =      -856.94863532
  -exchange      EXHF   =         0.00000000
  -V(xc)+E(xc)   XCENC  =        98.52424026
  PAW double counting   =      2411.21412627    -2502.87302069
  entropy T*S    EENTRO =        -0.00000000
  eigenvalues    EBANDS =      -467.07105060
  atomic energy  EATOM  =      3130.78817564
  Solvation  Ediel_sol  =         0.00000000
  ---------------------------------------------------
  free energy    TOTEN  =       -11.05529403 eV

  energy without entropy =      -11.05529403  energy(sigma->0) =      -11.05529403


--------------------------------------------------------------------------------------------------------




--------------------------------------- Iteration      1(   7)  ---------------------------------------


    POTLOK:  cpu time    0.0304: real time    0.0307
    SETDIJ:  cpu time    0.0029: real time    0.0029
     EDDAV:  cpu time    0.1430: real time    0.1431
       DOS:  cpu time    0.0003: real time    0.0003
    CHARGE:  cpu time    0.0204: real time    0.0205
    MIXING:  cpu time    0.0018: real time    0.0018
    --------------------------------------------
      LOOP:  cpu time    0.1987: real time    0.1992

 eigenvalue-minimisations  :  1294
 total energy-change (2. order) : 0.5522006E-01  (-0.1223841E-01)
 number of electron      27.9999965 magnetization 
 augmentation part       12.2255383 magnetization 

 Broyden mixing:
  rms(total) = 0.29563E-01    rms(broyden)= 0.29557E-01
  rms(prec ) = 0.66234E-01
  weight for this iteration     100.00

 eigenvalues of (default mixing * dielectric matrix)
  average eigenvalue GAMMA=   2.2217
  2.2217  2.2217

 Free energy of the ion-electron system (eV)
  ---------------------------------------------------
  alpha Z        PSCENC =        59.72485723
  Ewald energy   TEWEN  =     -1884.41398682
  -Hartree energ DENC   =      -851.63306414
  -exchange      EXHF   =         0.00000000
  -V(xc)+E(xc)   XCENC  =        98.33454816
  PAW double counting   =      2495.81347822    -2589.68533716
  entropy T*S    EENTRO =        -0.00000000
  eigenvalues    EBANDS =      -469.92874509
  atomic energy  EATOM  =      3130.78817564
  Solvation  Ediel_sol  =         0.00000000
  ---------------------------------------------------
  free energy    TOTEN  =       -11.00007397 eV

  energy without entropy =      -11.00007397  energy(sigma->0) =      -11.00007397


--------------------------------------------------------------------------------------------------------




--------------------------------------- Iteration      1(   8)  ---------------------------------------


    POTLOK:  cpu time    0.0308: real time    0.0311
    SETDIJ:  cpu time    0.0031: real time    0.0031
     EDDAV:  cpu time    0.1753: real time    0.1754
       DOS:  cpu time    0.0003: real time    0.0003
    CHARGE:  cpu time    0.0220: real time    0.0220
    MIXING:  cpu time    0.0019: real time    0.0019
    --------------------------------------------
      LOOP:  cpu time    0.2333: real time    0.2337

 eigenvalue-minimisations  :  1442
 total energy-change (2. order) : 0.3751147E-03  (-0.1101753E-02)
 number of electron      27.9999965 magnetization 
 augmentation part       12.2191461 magnetization 

 Broyden mixing:
  rms(total) = 0.74978E-02    rms(broyden)= 0.74686E-02
  rms(prec ) = 0.15239E-01
  weight for this iteration     100.00

 eigenvalues of (default mixing * dielectric matrix)
  average eigenvalue GAMMA=   1.8718
  0.9526  2.3313  2.3313

 Free energy of the ion-electron system (eV)
  ---------------------------------------------------
  alpha Z        PSCENC =        59.72485723
  Ewald energy   TEWEN  =     -1884.41398682
  -Hartree energ DENC   =      -850.76778804
  -exchange      EXHF   =         0.00000000
  -V(xc)+E(xc)   XCENC  =        98.33107700
  PAW double counting   =      2491.12275135    -2584.99431895
  entropy T*S    EENTRO =        -0.00000000
  eigenvalues    EBANDS =      -470.79046627
  atomic energy  EATOM  =      3130.78817564
  Solvation  Ediel_sol  =         0.00000000
  ---------------------------------------------------
  free energy    TOTEN  =       -10.99969885 eV

  energy without entropy =      -10.99969885  energy(sigma->0) =      -10.99969885


--------------------------------------------------------------------------------------------------------




--------------------------------------- Iteration      1(   9)  ---------------------------------------


    POTLOK:  cpu time    0.0330: real time    0.0339
    SETDIJ:  cpu time    0.0030: real time    0.0030
     EDDAV:  cpu time    0.1892: real time    0.1893
       DOS:  cpu time    0.0003: real time    0.0003
    CHARGE:  cpu time    0.0207: real time    0.0207
    MIXING:  cpu time    0.0017: real time    0.0017
    --------------------------------------------
      LOOP:  cpu time    0.2479: real time    0.2490

 eigenvalue-minimisations  :  1634
 total energy-change (2. order) : 0.6589371E-04  (-0.5249480E-04)
 number of electron      27.9999965 magnetization 
 augmentation part       12.2189014 magnetization 

 Broyden mixing:
  rms(total) = 0.29915E-02    rms(broyden)= 0.29845E-02
  rms(prec ) = 0.50529E-02
  weight for this iteration     100.00

 eigenvalues of (default mixing * dielectric matrix)
  average eigenvalue GAMMA=   1.8877
  2.7261  2.1369  1.3161  1.3717

 Free energy of the ion-electron system (eV)
  ---------------------------------------------------
  alpha Z        PSCENC =        59.72485723
  Ewald energy   TEWEN  =     -1884.41398682
  -Hartree energ DENC   =      -850.77151795
  -exchange      EXHF   =         0.00000000
  -V(xc)+E(xc)   XCENC  =        98.33543807
  PAW double counting   =      2491.74546793    -2585.50200718
  entropy T*S    EENTRO =        -0.00000000
  eigenvalues    EBANDS =      -470.90605989
  atomic energy  EATOM  =      3130.78817564
  Solvation  Ediel_sol  =         0.00000000
  ---------------------------------------------------
  free energy    TOTEN  =       -10.99963296 eV

  energy without entropy =      -10.99963296  energy(sigma->0) =      -10.99963296


--------------------------------------------------------------------------------------------------------




--------------------------------------- Iteration      1(  10)  ---------------------------------------


    POTLOK:  cpu time    0.0314: real time    0.0317
    SETDIJ:  cpu time    0.0025: real time    0.0025
     EDDAV:  cpu time    0.1662: real time    0.1663
       DOS:  cpu time    0.0003: real time    0.0003
    CHARGE:  cpu time    0.0205: real time    0.0205
    MIXING:  cpu time    0.0019: real time    0.0019
    --------------------------------------------
      LOOP:  cpu time    0.2229: real time    0.2233

 eigenvalue-minimisations  :  1382
 total energy-change (2. order) : 0.1476103E-04  (-0.3819515E-05)
 number of electron      27.9999965 magnetization 
 augmentation part       12.2192783 magnetization 

 Broyden mixing:
  rms(total) = 0.10114E-02    rms(broyden)= 0.10107E-02
  rms(prec ) = 0.17132E-02
  weight for this iteration     100.00

 eigenvalues of (default mixing * dielectric matrix)
  average eigenvalue GAMMA=   1.9412
  0.9949  2.9127  1.4341  2.1822  2.1822

 Free energy of the ion-electron system (eV)
  ---------------------------------------------------
  alpha Z        PSCENC =        59.72485723
  Ewald energy   TEWEN  =     -1884.41398682
  -Hartree energ DENC   =      -850.80175926
  -exchange      EXHF   =         0.00000000
  -V(xc)+E(xc)   XCENC  =        98.33836582
  PAW double counting   =      2492.70437129    -2586.42568832
  entropy T*S    EENTRO =        -0.00000000
  eigenvalues    EBANDS =      -470.91395378
  atomic energy  EATOM  =      3130.78817564
  Solvation  Ediel_sol  =         0.00000000
  ---------------------------------------------------
  free energy    TOTEN  =       -10.99961820 eV

  energy without entropy =      -10.99961820  energy(sigma->0) =      -10.99961820


--------------------------------------------------------------------------------------------------------




--------------------------------------- Iteration      1(  11)  ---------------------------------------


    POTLOK:  cpu time    0.0313: real time    0.0317
    SETDIJ:  cpu time    0.0029: real time    0.0030
     EDDAV:  cpu time    0.1061: real time    0.1062
       DOS:  cpu time    0.0003: real time    0.0003
    --------------------------------------------
      LOOP:  cpu time    0.1407: real time    0.1411

 eigenvalue-minimisations  :   686
 total energy-change (2. order) : 0.4488069E-05  (-0.4253244E-06)
 number of electron      27.9999965 magnetization 
 augmentation part       12.2192783 magnetization 

 Free energy of the ion-electron system (eV)
  ---------------------------------------------------
  alpha Z        PSCENC =        59.72485723
  Ewald energy   TEWEN  =     -1884.41398682
  -Hartree energ DENC   =      -850.80251623
  -exchange      EXHF   =         0.00000000
  -V(xc)+E(xc)   XCENC  =        98.33988552
  PAW double counting   =      2493.50608195    -2587.22643746
  entropy T*S    EENTRO =        -0.00000000
  eigenvalues    EBANDS =      -470.91567354
  atomic energy  EATOM  =      3130.78817564
  Solvation  Ediel_sol  =         0.00000000
  ---------------------------------------------------
  free energy    TOTEN  =       -10.99961371 eV

  energy without entropy =      -10.99961371  energy(sigma->0) =      -10.99961371


--------------------------------------------------------------------------------------------------------




 average (electrostatic) potential at core
  the test charge radii are     1.0856  0.7079  0.9254
  (the norm of the test charge is              1.0000)
       1-105.9162       2 -61.6863       3 -61.6863       4 -46.3278
 
 
 
 E-fermi :   4.2165     XC(G=0):  -8.7921     alpha+bet :-10.6464


 k-point     1 :       0.0000    0.0000    0.0000
  band No.  band energies     occupation 
      1     -42.6014      2.00000
      2     -42.5966      2.00000
      3     -20.5306      2.00000
      4     -20.5306      2.00000
      5     -20.5306      2.00000
      6     -17.7479      2.00000
      7     -17.7479      2.00000
      8     -17.7479      2.00000
      9     -17.7355      2.00000
     10     -17.7355      2.00000
     11      -6.5339      2.00000
     12       4.0303      2.00000
     13       4.0304      2.00000
     14       4.0304      2.00000
     15       4.6796      0.00000
     16       6.6007      0.00000
     17       6.6008      0.00000
     18       6.6008      0.00000

 k-point     2 :       0.1250    0.0000    0.0000
  band No.  band energies     occupation 
      1     -42.6013      2.00000
      2     -42.5967      2.00000
      3     -20.5310      2.00000
      4     -20.5308      2.00000
      5     -20.5308      2.00000
      6     -17.7474      2.00000
      7     -17.7474      2.00000
      8     -17.7474      2.00000
      9     -17.7353      2.00000
     10     -17.7353      2.00000
     11      -6.4765      2.00000
     12       2.8124      2.00000
     13       3.8634      2.00000
     14       3.8634      2.00000
     15       5.3911      0.00000
     16       6.8638      0.00000
     17       6.8638      0.00000
     18       7.3023      0.00000

 k-point     3 :       0.2500    0.0000    0.0000
  band No.  band energies     occupation 
      1     -42.6008      2.00000
      2     -42.5973      2.00000
      3     -20.5320      2.00000
      4     -20.5312      2.00000
      5     -20.5312      2.00000
      6     -17.7463      2.00000
      7     -17.7462      2.00000
      8     -17.7462      2.00000
      9     -17.7346      2.00000
     10     -17.7346      2.00000
     11      -6.3283      2.00000
     12       1.4983      2.00000
     13       3.5559      2.00000
     14       3.5560      2.00000
     15       5.6718      0.00000
     16       7.0982      0.00000
     17       7.0982      0.00000
     18       8.6245      0.00000

 k-point     4 :       0.3750    0.0000    0.0000
  band No.  band energies     occupation 
      1     -42.5999      2.00000
      2     -42.5981      2.00000
      3     -20.5330      2.00000
      4     -20.5317      2.00000
      5     -20.5317      2.00000
      6     -17.7453      2.00000
      7     -17.7452      2.00000
      8     -17.7451      2.00000
      9     -17.7337      2.00000
     10     -17.7337      2.00000
     11      -6.1631      2.00000
     12       0.5963      2.00000
     13       3.3219      2.00000
     14       3.3220      2.00000
     15       5.7849      0.00000
     16       6.8938      0.00000
     17       6.8938      0.00000
     18       9.0942      0.00000

 k-point     5 :       0.5000    0.0000    0.0000
  band No.  band energies     occupation 
      1     -42.5990      2.00000
      2     -42.5990      2.00000
      3     -20.5334      2.00000
      4     -20.5318      2.00000
      5     -20.5318      2.00000
      6     -17.7449      2.00000
      7     -17.7449      2.00000
      8     -17.7447      2.00000
      9     -17.7333      2.00000
     10     -17.7333      2.00000
     11      -6.0885      2.00000
     12       0.2717      2.00000
     13       3.2383      2.00000
     14       3.2384      2.00000
     15       5.8213      0.00000
     16       6.7748      0.00000
     17       6.7748      0.00000
     18       9.1398      0.00000

 k-point     6 :       0.1250    0.1250    0.0000
  band No.  band energies     occupation 
      1     -42.6013      2.00000
      2     -42.5968      2.00000
      3     -20.5313      2.00000
      4     -20.5308      2.00000
      5     -20.5308      2.00000
      6     -17.7479      2.00000
      7     -17.7469      2.00000
      8     -17.7469      2.00000
      9     -17.7354      2.00000
     10     -17.7351      2.00000
     11      -6.4579      2.00000
     12       2.8881      2.00000
     13       3.5356      2.00000
     14       3.5356      2.00000
     15       5.8688      0.00000
     16       6.5772      0.00000
     17       7.3306      0.00000
     18       7.3306      0.00000

 k-point     7 :       0.2500    0.1250    0.0000
  band No.  band energies     occupation 
      1     -42.6008      2.00000
      2     -42.5972      2.00000
      3     -20.5320      2.00000
      4     -20.5311      2.00000
      5     -20.5311      2.00000
      6     -17.7474      2.00000
      7     -17.7457      2.00000
      8     -17.7457      2.00000
      9     -17.7352      2.00000
     10     -17.7345      2.00000
     11      -6.3410      2.00000
     12       1.8604      2.00000
     13       3.1866      2.00000
     14       3.3236      2.00000
     15       6.0721      0.00000
     16       6.8050      0.00000
     17       7.5983      0.00000
     18       7.7937      0.00000

 k-point     8 :       0.3750    0.1250    0.0000
  band No.  band energies     occupation 
      1     -42.6001      2.00000
      2     -42.5978      2.00000
      3     -20.5327      2.00000
      4     -20.5316      2.00000
      5     -20.5315      2.00000
      6     -17.7463      2.00000
      7     -17.7447      2.00000
      8     -17.7446      2.00000
      9     -17.7346      2.00000
     10     -17.7337      2.00000
     11      -6.1807      2.00000
     12       0.9054      2.00000
     13       2.9907      2.00000
     14       3.0265      2.00000
     15       6.0560      0.00000
     16       6.9435      0.00000
     17       7.6133      0.00000
     18       8.1551      0.00000

 k-point     9 :       0.5000    0.1250    0.0000
  band No.  band energies     occupation 
      1     -42.5993      2.00000
      2     -42.5987      2.00000
      3     -20.5332      2.00000
      4     -20.5319      2.00000
      5     -20.5318      2.00000
      6     -17.7452      2.00000
      7     -17.7443      2.00000
      8     -17.7442      2.00000
      9     -17.7340      2.00000
     10     -17.7333      2.00000
     11      -6.0729      2.00000
     12       0.4148      2.00000
     13       2.7494      2.00000
     14       2.9989      2.00000
     15       6.0830      0.00000
     16       6.9100      0.00000
     17       7.2844      0.00000
     18       9.3530      0.00000

 k-point    10 :      -0.3750    0.1250    0.0000
  band No.  band energies     occupation 
      1     -42.5996      2.00000
      2     -42.5985      2.00000
      3     -20.5331      2.00000
      4     -20.5318      2.00000
      5     -20.5318      2.00000
      6     -17.7449      2.00000
      7     -17.7446      2.00000
      8     -17.7446      2.00000
      9     -17.7339      2.00000
     10     -17.7336      2.00000
     11      -6.0971      2.00000
     12       0.5141      2.00000
     13       2.6261      2.00000
     14       3.2045      2.00000
     15       6.1503      0.00000
     16       7.0017      0.00000
     17       7.1440      0.00000
     18       9.5242      0.00000

 k-point    11 :      -0.2500    0.1250    0.0000
  band No.  band energies     occupation 
      1     -42.6004      2.00000
      2     -42.5976      2.00000
      3     -20.5325      2.00000
      4     -20.5315      2.00000
      5     -20.5314      2.00000
      6     -17.7458      2.00000
      7     -17.7456      2.00000
      8     -17.7452      2.00000
      9     -17.7344      2.00000
     10     -17.7343      2.00000
     11      -6.2343      2.00000
     12       1.1612      2.00000
     13       2.7267      2.00000
     14       3.5471      2.00000
     15       6.1069      0.00000
     16       7.1884      0.00000
     17       7.3170      0.00000
     18       8.4207      0.00000

 k-point    12 :      -0.1250    0.1250    0.0000
  band No.  band energies     occupation 
      1     -42.6010      2.00000
      2     -42.5971      2.00000
      3     -20.5316      2.00000
      4     -20.5311      2.00000
      5     -20.5310      2.00000
      6     -17.7469      2.00000
      7     -17.7468      2.00000
      8     -17.7462      2.00000
      9     -17.7350      2.00000
     10     -17.7349      2.00000
     11      -6.3891      2.00000
     12       2.1024      2.00000
     13       3.1437      2.00000
     14       3.8629      2.00000
     15       5.8418      0.00000
     16       6.9643      0.00000
     17       7.5651      0.00000
     18       7.6520      0.00000

 k-point    13 :       0.2500    0.2500    0.0000
  band No.  band energies     occupation 
      1     -42.6007      2.00000
      2     -42.5974      2.00000
      3     -20.5323      2.00000
      4     -20.5312      2.00000
      5     -20.5312      2.00000
      6     -17.7479      2.00000
      7     -17.7444      2.00000
      8     -17.7444      2.00000
      9     -17.7357      2.00000
     10     -17.7342      2.00000
     11      -6.2665      2.00000
     12       1.8161      2.00000
     13       2.7917      2.00000
     14       2.7918      2.00000
     15       5.7074      0.00000
     16       6.5250      0.00000
     17       8.6747      0.00000
     18       8.6800      0.00000

 k-point    14 :       0.3750    0.2500    0.0000
  band No.  band energies     occupation 
      1     -42.6002      2.00000
      2     -42.5978      2.00000
      3     -20.5327      2.00000
      4     -20.5316      2.00000
      5     -20.5315      2.00000
      6     -17.7474      2.00000
      7     -17.7433      2.00000
      8     -17.7433      2.00000
      9     -17.7360      2.00000
     10     -17.7336      2.00000
     11      -6.1403      2.00000
     12       1.2305      2.00000
     13       2.4555      2.00000
     14       2.5630      2.00000
     15       5.4702      0.00000
     16       6.8145      0.00000
     17       8.5320      0.00000
     18       8.8793      0.00000

 k-point    15 :       0.5000    0.2500    0.0000
  band No.  band energies     occupation 
      1     -42.5996      2.00000
      2     -42.5984      2.00000
      3     -20.5328      2.00000
      4     -20.5320      2.00000
      5     -20.5318      2.00000
      6     -17.7463      2.00000
      7     -17.7429      2.00000
      8     -17.7429      2.00000
      9     -17.7357      2.00000
     10     -17.7332      2.00000
     11      -6.0335      2.00000
     12       0.7877      2.00000
     13       2.0229      2.00000
     14       2.5595      2.00000
     15       5.6040      0.00000
     16       7.7162      0.00000
     17       8.3970      0.00000
     18       8.5213      0.00000

 k-point    16 :      -0.3750    0.2500    0.0000
  band No.  band energies     occupation 
      1     -42.5992      2.00000
      2     -42.5989      2.00000
      3     -20.5329      2.00000
      4     -20.5321      2.00000
      5     -20.5319      2.00000
      6     -17.7453      2.00000
      7     -17.7434      2.00000
      8     -17.7433      2.00000
      9     -17.7351      2.00000
     10     -17.7334      2.00000
     11      -6.0183      2.00000
     12       0.7162      2.00000
     13       1.7655      2.00000
     14       2.7819      2.00000
     15       5.8850      0.00000
     16       7.9737      0.00000
     17       8.2309      0.00000
     18       9.4025      0.00000

 k-point    17 :      -0.2500    0.2500    0.0000
  band No.  band energies     occupation 
      1     -42.5999      2.00000
      2     -42.5982      2.00000
      3     -20.5329      2.00000
      4     -20.5318      2.00000
      5     -20.5317      2.00000
      6     -17.7448      2.00000
      7     -17.7446      2.00000
      8     -17.7444      2.00000
      9     -17.7345      2.00000
     10     -17.7339      2.00000
     11      -6.1057      2.00000
     12       0.9094      2.00000
     13       1.9615      2.00000
     14       3.1725      2.00000
     15       6.2008      0.00000
     16       7.6270      0.00000
     17       8.0548      0.00000
     18       8.2696      0.00000

 k-point    18 :       0.3750    0.3750    0.0000
  band No.  band energies     occupation 
      1     -42.6001      2.00000
      2     -42.5980      2.00000
      3     -20.5327      2.00000
      4     -20.5316      2.00000
      5     -20.5316      2.00000
      6     -17.7479      2.00000
      7     -17.7421      2.00000
      8     -17.7420      2.00000
      9     -17.7370      2.00000
     10     -17.7332      2.00000
     11      -6.0623      2.00000
     12       1.1540      2.00000
     13       2.2808      2.00000
     14       2.2809      2.00000
     15       4.7712      0.00000
     16       6.4779      0.00000
     17      10.0441      0.00000
     18      10.0442      0.00000

 k-point    19 :       0.5000    0.3750    0.0000
  band No.  band energies     occupation 
      1     -42.5998      2.00000
      2     -42.5982      2.00000
      3     -20.5327      2.00000
      4     -20.5319      2.00000
      5     -20.5317      2.00000
      6     -17.7475      2.00000
      7     -17.7416      2.00000
      8     -17.7416      2.00000
      9     -17.7373      2.00000
     10     -17.7329      2.00000
     11      -5.9916      2.00000
     12       1.0101      2.00000
     13       1.8460      2.00000
     14       2.2243      2.00000
     15       4.8708      0.00000
     16       6.7702      0.00000
     17       9.9777      0.00000
     18      10.1034      0.00000

 k-point    20 :      -0.3750    0.3750    0.0000
  band No.  band energies     occupation 
      1     -42.5994      2.00000
      2     -42.5987      2.00000
      3     -20.5324      2.00000
      4     -20.5324      2.00000
      5     -20.5319      2.00000
      6     -17.7463      2.00000
      7     -17.7421      2.00000
      8     -17.7420      2.00000
      9     -17.7365      2.00000
     10     -17.7331      2.00000
     11      -5.9732      2.00000
     12       1.1927      2.00000
     13       1.1974      2.00000
     14       2.4051      2.00000
     15       5.3772      0.00000
     16       7.7337      0.00000
     17       9.3207      0.00000
     18       9.7183      0.00000

 k-point    21 :       0.5000    0.5000    0.0000
  band No.  band energies     occupation 
      1     -42.5999      2.00000
      2     -42.5982      2.00000
      3     -20.5327      2.00000
      4     -20.5317      2.00000
      5     -20.5317      2.00000
      6     -17.7480      2.00000
      7     -17.7411      2.00000
      8     -17.7411      2.00000
      9     -17.7379      2.00000
     10     -17.7328      2.00000
     11      -5.9734      2.00000
     12       0.9327      2.00000
     13       2.1040      2.00000
     14       2.1040      2.00000
     15       4.4029      0.00000
     16       6.4597      0.00000
     17      11.2368      0.00000
     18      11.2369      0.00000

 k-point    22 :       0.3750    0.2500    0.1250
  band No.  band energies     occupation 
      1     -42.6004      2.00000
      2     -42.5976      2.00000
      3     -20.5325      2.00000
      4     -20.5315      2.00000
      5     -20.5313      2.00000
      6     -17.7469      2.00000
      7     -17.7446      2.00000
      8     -17.7444      2.00000
      9     -17.7352      2.00000
     10     -17.7340      2.00000
     11      -6.2183      2.00000
     12       1.3540      2.00000
     13       2.4955      2.00000
     14       3.1535      2.00000
     15       6.1781      0.00000
     16       7.0610      0.00000
     17       7.3400      0.00000
     18       8.7475      0.00000

 k-point    23 :       0.5000    0.2500    0.1250
  band No.  band energies     occupation 
      1     -42.5998      2.00000
      2     -42.5983      2.00000
      3     -20.5329      2.00000
      4     -20.5319      2.00000
      5     -20.5317      2.00000
      6     -17.7457      2.00000
      7     -17.7443      2.00000
      8     -17.7433      2.00000
      9     -17.7350      2.00000
     10     -17.7335      2.00000
     11      -6.0848      2.00000
     12       0.8203      2.00000
     13       2.1659      2.00000
     14       2.8229      2.00000
     15       6.3541      0.00000
     16       6.9637      0.00000
     17       7.8893      0.00000
     18       8.7417      0.00000

 k-point    24 :      -0.3750    0.2500    0.1250
  band No.  band energies     occupation 
      1     -42.5991      2.00000
      2     -42.5990      2.00000
      3     -20.5330      2.00000
      4     -20.5320      2.00000
      5     -20.5319      2.00000
      6     -17.7448      2.00000
      7     -17.7446      2.00000
      8     -17.7429      2.00000
      9     -17.7349      2.00000
     10     -17.7333      2.00000
     11      -6.0256      2.00000
     12       0.5943      2.00000
     13       2.1093      2.00000
     14       2.6464      2.00000
     15       6.4901      0.00000
     16       6.7347      0.00000
     17       8.3849      0.00000
     18       9.5378      0.00000

 k-point    25 :       0.5000    0.3750    0.1250
  band No.  band energies     occupation 
      1     -42.5998      2.00000
      2     -42.5982      2.00000
      3     -20.5327      2.00000
      4     -20.5318      2.00000
      5     -20.5317      2.00000
      6     -17.7469      2.00000
      7     -17.7429      2.00000
      8     -17.7420      2.00000
      9     -17.7364      2.00000
     10     -17.7332      2.00000
     11      -6.0414      2.00000
     12       1.0430      2.00000
     13       2.0297      2.00000
     14       2.2561      2.00000
     15       5.5196      0.00000
     16       7.0224      0.00000
     17       8.3227      0.00000
     18      10.1790      0.00000

 k-point    26 :      -0.3750    0.3750    0.1250
  band No.  band energies     occupation 
      1     -42.5993      2.00000
      2     -42.5987      2.00000
      3     -20.5326      2.00000
      4     -20.5322      2.00000
      5     -20.5320      2.00000
      6     -17.7458      2.00000
      7     -17.7433      2.00000
      8     -17.7416      2.00000
      9     -17.7363      2.00000
     10     -17.7331      2.00000
     11      -5.9812      2.00000
     12       0.9962      2.00000
     13       1.5950      2.00000
     14       2.1341      2.00000
     15       5.9954      0.00000
     16       7.7823      0.00000
     17       7.9612      0.00000
     18       9.5611      0.00000

 k-point    27 :      -0.2500    0.3750    0.1250
  band No.  band energies     occupation 
      1     -42.5993      2.00000
      2     -42.5988      2.00000
      3     -20.5327      2.00000
      4     -20.5321      2.00000
      5     -20.5320      2.00000
      6     -17.7447      2.00000
      7     -17.7445      2.00000
      8     -17.7421      2.00000
      9     -17.7357      2.00000
     10     -17.7333      2.00000
     11      -6.0002      2.00000
     12       0.9387      2.00000
     13       1.5582      2.00000
     14       2.4003      2.00000
     15       6.4548      0.00000
     16       7.2527      0.00000
     17       8.3487      0.00000
     18       9.3176      0.00000

 k-point    28 :      -0.3750    0.5000    0.1250
  band No.  band energies     occupation 
      1     -42.5996      2.00000
      2     -42.5984      2.00000
      3     -20.5326      2.00000
      4     -20.5320      2.00000
      5     -20.5319      2.00000
      6     -17.7470      2.00000
      7     -17.7421      2.00000
      8     -17.7411      2.00000
      9     -17.7372      2.00000
     10     -17.7329      2.00000
     11      -5.9663      2.00000
     12       1.0607      2.00000
     13       1.7966      2.00000
     14       1.8662      2.00000
     15       5.2386      0.00000
     16       7.0023      0.00000
     17       9.2921      0.00000
     18      10.1822      0.00000

 k-point    29 :      -0.2500    0.5000    0.2500
  band No.  band energies     occupation 
      1     -42.5990      2.00000
      2     -42.5990      2.00000
      3     -20.5324      2.00000
      4     -20.5322      2.00000
      5     -20.5322      2.00000
      6     -17.7445      2.00000
      7     -17.7445      2.00000
      8     -17.7411      2.00000
      9     -17.7366      2.00000
     10     -17.7331      2.00000
     11      -5.9592      2.00000
     12       1.4141      2.00000
     13       1.4142      2.00000
     14       1.5701      2.00000
     15       6.9318      0.00000
     16       7.1471      0.00000
     17       8.3610      0.00000
     18       8.3610      0.00000


--------------------------------------------------------------------------------------------------------


 soft charge-density along one line, spin component           1
         0         1         2         3         4         5         6         7         8         9
 total charge-density along one line
 
 pseudopotential strength for first ion, spin component:           1
-18.453  -0.000   0.000  -0.000  -0.000   4.455   0.000  -0.000
 -0.000 -18.453  -0.000  -0.000   0.000   0.000   4.455   0.000
  0.000  -0.000 -18.452  -0.000  -0.000  -0.000   0.000   4.455
 -0.000  -0.000  -0.000 -18.453  -0.000   0.000   0.000   0.000
 -0.000   0.000  -0.000  -0.000 -18.452   0.000  -0.000   0.000
  4.455   0.000  -0.000   0.000   0.000   5.556  -0.000   0.000
[...]
     16       7.2453      0.00000
     17       7.8051      0.00000
     18       8.0307      0.00000

 k-point    16 :      -0.3750    0.2500    0.0000
  band No.  band energies     occupation 
      1     -43.0358      2.00000
      2     -43.0356      2.00000
      3     -20.9239      2.00000
      4     -20.9233      2.00000
      5     -20.9231      2.00000
      6     -18.0906      2.00000
      7     -18.0892      2.00000
      8     -18.0890      2.00000
      9     -18.0816      2.00000
     10     -18.0803      2.00000
     11      -6.3016      2.00000
     12       0.4917      2.00000
     13       1.4934      2.00000
     14       2.4806      2.00000
     15       5.4278      0.00000
     16       7.4199      0.00000
     17       7.7598      0.00000
     18       8.8403      0.00000

 k-point    17 :      -0.2500    0.2500    0.0000
  band No.  band energies     occupation 
      1     -43.0363      2.00000
      2     -43.0350      2.00000
      3     -20.9239      2.00000
      4     -20.9231      2.00000
      5     -20.9230      2.00000
      6     -18.0902      2.00000
      7     -18.0901      2.00000
      8     -18.0899      2.00000
      9     -18.0811      2.00000
     10     -18.0807      2.00000
     11      -6.3782      2.00000
     12       0.6640      2.00000
     13       1.6861      2.00000
     14       2.8492      2.00000
     15       5.7233      0.00000
     16       7.0835      0.00000
     17       7.6303      0.00000
     18       7.7724      0.00000

 k-point    18 :       0.3750    0.3750    0.0000
  band No.  band energies     occupation 
      1     -43.0365      2.00000
      2     -43.0348      2.00000
      3     -20.9238      2.00000
      4     -20.9229      2.00000
      5     -20.9229      2.00000
      6     -18.0928      2.00000
      7     -18.0881      2.00000
      8     -18.0881      2.00000
      9     -18.0830      2.00000
     10     -18.0800      2.00000
     11      -6.3388      2.00000
     12       0.8864      2.00000
     13       2.0041      2.00000
     14       2.0041      2.00000
     15       4.3550      0.00000
     16       6.0387      0.00000
     17       9.4567      0.00000
     18       9.4567      0.00000

 k-point    19 :       0.5000    0.3750    0.0000
  band No.  band energies     occupation 
      1     -43.0362      2.00000
      2     -43.0351      2.00000
      3     -20.9238      2.00000
      4     -20.9231      2.00000
      5     -20.9230      2.00000
      6     -18.0924      2.00000
      7     -18.0877      2.00000
      8     -18.0877      2.00000
      9     -18.0832      2.00000
     10     -18.0799      2.00000
     11      -6.2770      2.00000
     12       0.7606      2.00000
     13       1.5843      2.00000
     14       1.9506      2.00000
     15       4.4480      0.00000
     16       6.3186      0.00000
     17       9.3413      0.00000
     18       9.5330      0.00000

 k-point    20 :      -0.3750    0.3750    0.0000
  band No.  band energies     occupation 
      1     -43.0359      2.00000
      2     -43.0354      2.00000
      3     -20.9236      2.00000
      4     -20.9236      2.00000
      5     -20.9231      2.00000
      6     -18.0915      2.00000
      7     -18.0882      2.00000
      8     -18.0881      2.00000
      9     -18.0826      2.00000
     10     -18.0800      2.00000
     11      -6.2614      2.00000
     12       0.9409      2.00000
     13       0.9592      2.00000
     14       2.1228      2.00000
     15       4.9359      0.00000
     16       7.2555      0.00000
     17       8.6865      0.00000
     18       9.1326      0.00000

 k-point    21 :       0.5000    0.5000    0.0000
  band No.  band energies     occupation 
      1     -43.0363      2.00000
      2     -43.0350      2.00000
      3     -20.9238      2.00000
      4     -20.9230      2.00000
      5     -20.9230      2.00000
      6     -18.0928      2.00000
      7     -18.0873      2.00000
      8     -18.0873      2.00000
      9     -18.0837      2.00000
     10     -18.0797      2.00000
     11      -6.2608      2.00000
     12       0.6876      2.00000
     13       1.8360      2.00000
     14       1.8360      2.00000
     15       3.9962      0.00000
     16       6.0121      0.00000
     17      10.5620      0.00000
     18      10.5620      0.00000

 k-point    22 :       0.3750    0.2500    0.1250
  band No.  band energies     occupation 
      1     -43.0368      2.00000
      2     -43.0346      2.00000
      3     -20.9236      2.00000
      4     -20.9228      2.00000
      5     -20.9228      2.00000
      6     -18.0919      2.00000
      7     -18.0901      2.00000
      8     -18.0899      2.00000
      9     -18.0817      2.00000
     10     -18.0807      2.00000
     11      -6.4770      2.00000
     12       1.0712      2.00000
     13       2.2018      2.00000
     14       2.8246      2.00000
     15       5.6804      0.00000
     16       6.6366      0.00000
     17       6.8508      0.00000
     18       8.2115      0.00000

 k-point    23 :       0.5000    0.2500    0.1250
  band No.  band energies     occupation 
      1     -43.0362      2.00000
      2     -43.0351      2.00000
      3     -20.9239      2.00000
      4     -20.9231      2.00000
      5     -20.9230      2.00000
      6     -18.0910      2.00000
      7     -18.0898      2.00000
      8     -18.0891      2.00000
      9     -18.0815      2.00000
     10     -18.0804      2.00000
     11      -6.3597      2.00000
     12       0.5817      2.00000
     13       1.8803      2.00000
     14       2.5151      2.00000
     15       5.8651      0.00000
     16       6.4879      0.00000
     17       7.4270      0.00000
     18       8.1935      0.00000

 k-point    24 :      -0.3750    0.2500    0.1250
  band No.  band energies     occupation 
      1     -43.0357      2.00000
      2     -43.0357      2.00000
      3     -20.9240      2.00000
      4     -20.9233      2.00000
      5     -20.9232      2.00000
      6     -18.0902      2.00000
      7     -18.0901      2.00000
      8     -18.0887      2.00000
      9     -18.0815      2.00000
     10     -18.0802      2.00000
     11      -6.3082      2.00000
     12       0.3749      2.00000
     13       1.8212      2.00000
     14       2.3502      2.00000
     15       5.9920      0.00000
     16       6.2745      0.00000
     17       7.8887      0.00000
     18       8.9693      0.00000

 k-point    25 :       0.5000    0.3750    0.1250
  band No.  band energies     occupation 
      1     -43.0363      2.00000
      2     -43.0350      2.00000
      3     -20.9238      2.00000
      4     -20.9231      2.00000
      5     -20.9230      2.00000
      6     -18.0919      2.00000
      7     -18.0887      2.00000
      8     -18.0881      2.00000
      9     -18.0826      2.00000
     10     -18.0801      2.00000
     11      -6.3209      2.00000
     12       0.7894      2.00000
     13       1.7576      2.00000
     14       1.9761      2.00000
     15       5.0731      0.00000
     16       6.5732      0.00000
     17       7.7798      0.00000
     18       9.5808      0.00000

 k-point    26 :      -0.3750    0.3750    0.1250
  band No.  band energies     occupation 
      1     -43.0359      2.00000
      2     -43.0354      2.00000
      3     -20.9237      2.00000
      4     -20.9234      2.00000
      5     -20.9232      2.00000
      6     -18.0910      2.00000
      7     -18.0891      2.00000
      8     -18.0877      2.00000
      9     -18.0825      2.00000
     10     -18.0800      2.00000
     11      -6.2686      2.00000
     12       0.7586      2.00000
     13       1.3329      2.00000
     14       1.8602      2.00000
     15       5.5323      0.00000
     16       7.2852      0.00000
     17       7.4480      0.00000
     18       9.0357      0.00000

 k-point    27 :      -0.2500    0.3750    0.1250
  band No.  band energies     occupation 
      1     -43.0358      2.00000
      2     -43.0355      2.00000
      3     -20.9238      2.00000
      4     -20.9233      2.00000
      5     -20.9232      2.00000
      6     -18.0902      2.00000
      7     -18.0900      2.00000
      8     -18.0881      2.00000
      9     -18.0820      2.00000
     10     -18.0802      2.00000
     11      -6.2854      2.00000
     12       0.7039      2.00000
     13       1.2969      2.00000
     14       2.1133      2.00000
     15       5.9778      0.00000
     16       6.7401      0.00000
     17       7.8750      0.00000
     18       8.7941      0.00000

 k-point    28 :      -0.3750    0.5000    0.1250
  band No.  band energies     occupation 
      1     -43.0361      2.00000
      2     -43.0352      2.00000
      3     -20.9237      2.00000
      4     -20.9233      2.00000
      5     -20.9232      2.00000
      6     -18.0920      2.00000
      7     -18.0881      2.00000
      8     -18.0873      2.00000
      9     -18.0832      2.00000
     10     -18.0798      2.00000
     11      -6.2550      2.00000
     12       0.8124      2.00000
     13       1.5399      2.00000
     14       1.6015      2.00000
     15       4.8016      0.00000
     16       6.5444      0.00000
     17       8.6955      0.00000
     18       9.6453      0.00000

 k-point    29 :      -0.2500    0.5000    0.2500
  band No.  band energies     occupation 
      1     -43.0357      2.00000
      2     -43.0357      2.00000
      3     -20.9235      2.00000
      4     -20.9234      2.00000
      5     -20.9234      2.00000
      6     -18.0900      2.00000
      7     -18.0900      2.00000
      8     -18.0873      2.00000
      9     -18.0827      2.00000
     10     -18.0800      2.00000
     11      -6.2492      2.00000
     12       1.1579      2.00000
     13       1.1579      2.00000
     14       1.3232      2.00000
     15       6.4387      0.00000
     16       6.6256      0.00000
     17       7.8720      0.00000
     18       7.8721      0.00000


--------------------------------------------------------------------------------------------------------


 soft charge-density along one line, spin component           1
         0         1         2         3         4         5         6         7         8         9
 total charge-density along one line
 
 pseudopotential strength for first ion, spin component:           1
-18.707  -0.000   0.000  -0.000  -0.000   4.612   0.000  -0.000
 -0.000 -18.707  -0.000  -0.000   0.000   0.000   4.612   0.000
  0.000  -0.000 -18.706  -0.000  -0.000  -0.000   0.000   4.612
 -0.000  -0.000  -0.000 -18.707  -0.000   0.000   0.000   0.000
 -0.000   0.000  -0.000  -0.000 -18.706   0.000  -0.000   0.000
  4.612   0.000  -0.000   0.000   0.000   5.481  -0.000   0.000
  0.000   4.612   0.000   0.000  -0.000  -0.000   5.481  -0.000
 -0.000   0.000   4.612   0.000   0.000   0.000  -0.000   5.481
  0.000   0.000   0.000   4.612   0.000  -0.000  -0.000  -0.000
  0.000  -0.000   0.000   0.000   4.612   0.000   0.000  -0.000
  0.000   0.000  -0.000   0.000  -0.000   0.000   0.000  -0.000
  0.000   0.000  -0.000   0.000  -0.000  -0.000  -0.000   0.000
  0.000   0.000  -0.000   0.000  -0.000   0.000   0.000  -0.000
  0.000   0.000   0.000   0.000  -0.000   0.000   0.000   0.000
  0.000   0.000  -0.000   0.000   0.000   0.000   0.000  -0.000
  0.000   0.000  -0.000   0.000  -0.000   0.000   0.000  -0.000
  0.000   0.000   0.000   0.000  -0.000   0.000   0.000   0.000
  0.000   0.000  -0.000   0.000   0.000   0.000   0.000  -0.000
 total augmentation occupancy for first ion, spin component:           1
  1.999  -0.000   0.000  -0.000   0.000   0.007   0.000  -0.000   0.000   0.000   0.000   0.000   0.000  -0.000   0.000  -0.000
 -0.000   1.999  -0.000  -0.000   0.000   0.000   0.007  -0.000   0.000  -0.000   0.000   0.000  -0.000  -0.000   0.000   0.000
  0.000  -0.000   1.999  -0.000   0.000   0.000  -0.000   0.005  -0.000   0.000   0.000  -0.000  -0.000  -0.000  -0.000   0.000
 -0.000  -0.000  -0.000   1.999  -0.000   0.000   0.000  -0.000   0.007   0.000  -0.000  -0.000   0.000  -0.000  -0.000  -0.000
 -0.000   0.000   0.000  -0.000   1.999   0.000   0.000   0.000  -0.000   0.005   0.000   0.000   0.000   0.000  -0.000  -0.000
  0.007   0.000  -0.000   0.000  -0.000   0.002   0.000   0.000   0.000  -0.000  -0.000   0.000  -0.000  -0.000   0.000  -0.000
  0.000   0.007  -0.000   0.000  -0.000  -0.000   0.002  -0.000  -0.000   0.000  -0.000   0.000   0.000   0.000   0.000  -0.000
  0.000  -0.000   0.005   0.000   0.000   0.000  -0.000   0.002  -0.000   0.000   0.000   0.000   0.000  -0.000   0.000  -0.000
  0.000   0.000  -0.000   0.007   0.000  -0.000  -0.000  -0.000   0.002  -0.000   0.000   0.000   0.000  -0.000   0.000  -0.000
  0.000  -0.000   0.000   0.000   0.005   0.000   0.000   0.000  -0.000   0.002  -0.000   0.000   0.000   0.000   0.000  -0.000
  0.000   0.000   0.000  -0.000   0.000  -0.000   0.000   0.000   0.000  -0.000   1.911   0.031   0.000  -0.000  -0.000   0.000
  0.000   0.000   0.000  -0.000  -0.000   0.000   0.000   0.000   0.000   0.000   0.031   0.004   0.000  -0.000  -0.000   0.000
 -0.000   0.000   0.000  -0.000   0.000  -0.000  -0.000  -0.000  -0.000   0.000   0.000   0.000   1.565  -0.000   0.000  -0.085
  0.000   0.000  -0.000   0.000   0.000   0.000   0.000   0.000  -0.000   0.000  -0.000   0.000  -0.000   1.565   0.000  -0.000
  0.000   0.000   0.000   0.000   0.000  -0.000  -0.000  -0.000  -0.000   0.000   0.000  -0.000   0.000  -0.000   1.565  -0.000
 -0.000   0.000  -0.000  -0.000   0.000  -0.000  -0.000   0.000   0.000  -0.000   0.000   0.000  -0.085   0.000  -0.000   0.005
 -0.000  -0.000   0.000  -0.000  -0.000  -0.000   0.000   0.000  -0.000   0.000   0.000   0.000   0.000  -0.085   0.000   0.000
 -0.000  -0.000  -0.000  -0.000  -0.000   0.000  -0.000  -0.000  -0.000  -0.000  -0.000   0.000   0.000   0.000  -0.085   0.000


------------------------ aborting loop because EDIFF is reached ----------------------------------------


    CHARGE:  cpu time    0.0208: real time    0.0209
    FORLOC:  cpu time    0.0035: real time    0.0036
    FORNL :  cpu time    0.0204: real time    0.0204
    STRESS:  cpu time    0.0908: real time    0.0910
    FORCOR:  cpu time    0.0326: real time    0.0326
    FORHAR:  cpu time    0.0100: real time    0.0100
    MIXING:  cpu time    0.0073: real time    0.0073
    OFIELD:  cpu time    0.0000: real time    0.0000

  FORCE on cell =-STRESS in cart. coord.  units (eV):
  Direction    XX          YY          ZZ          XY          YZ          ZX
  --------------------------------------------------------------------------------------
  Alpha Z    56.58730    56.58730    56.58730
  Ewald    -616.94047  -616.94047  -616.94047     0.00058     0.00058     0.00058
  Hartree   290.53912   290.53912   290.53912     0.00014     0.00014     0.00014
  E(xc)    -137.61014  -137.61014  -137.61014     0.00005     0.00005     0.00005
  Local    -127.29391  -127.29391  -127.29391    -0.00083    -0.00083    -0.00083
  n-local    52.68981    52.04246    52.24109     2.08280    -1.55570     0.88908
  augment   212.25431   212.25431   212.25431     0.00018     0.00018     0.00018
  Kinetic   271.66888   271.06297   267.68520     2.90995    -1.58232     1.26088
  Fock        0.00000     0.00000     0.00000     0.00000     0.00000     0.00000
  -------------------------------------------------------------------------------------
  Total      -0.00032    -0.00032    -0.00032    -0.00000    -0.00000     0.00000
  in kB      -0.00597    -0.00597    -0.00597    -0.00000    -0.00000     0.00000
  external pressure =       -0.01 kB  Pullay stress =        0.00 kB


 VOLUME and BASIS-vectors are now :
 -----------------------------------------------------------------------------
  energy-cutoff  :      520.00
  volume of cell :       85.68
      direct lattice vectors                 reciprocal lattice vectors
    -0.000000000  3.499056056  3.499056056    -0.142895682  0.142895682  0.142895682
     3.499056056  0.000000000  3.499056056     0.142895682 -0.142895682  0.142895682
     3.499056056  3.499056056 -0.000000000     0.142895682  0.142895682 -0.142895682

  length of vectors
     4.948412530  4.948412530  4.948412530     0.247502581  0.247502581  0.247502581


 FORCES acting on ions
    electron-ion (+dipol)            ewald-force                    non-local-force                 convergence-correction
 -----------------------------------------------------------------------------------------------
   -.404E-03 -.404E-03 -.301E-03   -.172E-03 -.172E-03 -.172E-03   0.529E-22 -.159E-21 0.211E-21   0.526E-09 0.526E-09 0.665E-09
   0.202E-03 0.202E-03 0.215E-03   0.258E-04 0.258E-04 0.258E-04   -.867E-18 -.130E-17 -.130E-17   0.118E-08 0.118E-08 0.123E-08
   0.342E-02 0.342E-02 0.343E-02   0.507E-03 0.507E-03 0.507E-03   0.217E-18 0.217E-18 0.108E-17   0.167E-07 0.167E-07 0.167E-07
   -.387E-03 -.387E-03 -.410E-03   -.361E-03 -.361E-03 -.361E-03   0.000E+00 0.424E-20 0.854E-21   -.318E-08 -.318E-08 -.329E-08
 -----------------------------------------------------------------------------------------------
   0.283E-02 0.283E-02 0.294E-02   0.104E-14 0.772E-15 0.487E-16   -.650E-18 -.108E-17 -.216E-18   0.152E-07 0.152E-07 0.153E-07
 
 
 POSITION                                       TOTAL-FORCE (eV/Angst)
 -----------------------------------------------------------------------------------
      1.74953      1.74953      1.74953        -0.000000     -0.000000     -0.000000
      0.00000     -0.00000     -0.00000         0.000000      0.000000      0.000000
      3.49905      3.49905      3.49905        -0.000000     -0.000000     -0.000000
      5.24859      5.24859      5.24859         0.000000      0.000000     -0.000000
 -----------------------------------------------------------------------------------
    total drift:                                0.002831      0.002831      0.002937


--------------------------------------------------------------------------------------------------------



  FREE ENERGIE OF THE ION-ELECTRON SYSTEM (eV)
  ---------------------------------------------------
  free  energy   TOTEN  =       -11.02081137 eV

  energy  without entropy=      -11.02081137  energy(sigma->0) =      -11.02081137
 
 d Force = 0.0000000E+00[ 0.000E+00, 0.000E+00]  d Energy = 0.4077524E-06-0.408E-06
 d Force = 0.0000000E+00[ 0.000E+00, 0.000E+00]  d Ewald  = 0.1117810E+00-0.112E+00


--------------------------------------------------------------------------------------------------------


    POTLOK:  cpu time    0.0335: real time    0.0335


--------------------------------------------------------------------------------------------------------




--------------------------------------------------------------------------------------------------------


  
 reached required accuracy - stopping structural energy minimisation
     LOOP+:  cpu time    0.9854: real time    1.0450
    4ORBIT:  cpu time    0.0000: real time    0.0000

 total amount of memory used by VASP MPI-rank0    42944. kBytes
=======================================================================

   base      :      30000. kBytes
   nonl-proj :       3953. kBytes
   fftplans  :       2164. kBytes
   grid      :       4040. kBytes
   one-center:         15. kBytes
   wavefun   :       2772. kBytes
 
  
  
 General timing and accounting informations for this job:
 ========================================================
  
                  Total CPU time used (sec):        9.591
                            User time (sec):        9.344
                          System time (sec):        0.246
                         Elapsed time (sec):        9.843
  
                   Maximum memory used (kb):       90876.
                   Average memory used (kb):           0.
  
                          Minor page faults:        29720
                          Major page faults:            0
                 Voluntary context switches:          536
