 running on   28 total cores
 distrk:  each k-point on    7 cores,    4 groups
 distr:  one band on    7 cores,    1 groups
 using from now: INCAR     
 vasp.5.4.4.18Apr17-6-g9f103f2a35 (build Jun 23 2019 17:35:09) complex          
  
 POSCAR found type information on POSCAR  Bi Li Na
 POSCAR found :  3 types and       4 ions
 scaLAPACK will be used

 ----------------------------------------------------------------------------- 
|                                                                             |
|           W    W    AA    RRRRR   N    N  II  N    N   GGGG   !!!           |
|           W    W   A  A   R    R  NN   N  II  NN   N  G    G  !!!           |
|           W    W  A    A  R    R  N N  N  II  N N  N  G       !!!           |
|           W WW W  AAAAAA  RRRRR   N  N N  II  N  N N  G  GGG   !            |
|           WW  WW  A    A  R   R   N   NN  II  N   NN  G    G                |
|           W    W  A    A  R    R  N    N  II  N    N   GGGG   !!!           |
|                                                                             |
|      You have enabled k-point parallelism (KPAR>1).                         |
|      This developmental code was originally  written by Paul Kent at ORNL,  |
|      and carefully double checked in Vienna.                                |
|      GW as well as linear response parallelism added by Martijn Marsman     |
|      and Georg Kresse.                                                      |
|      Carefully verify results versus KPAR=1.                                |
|      Report problems to Paul Kent and Vienna.                               |
|                                                                             |
 ----------------------------------------------------------------------------- 

 LDA part: xc-table for Pade appr. of Perdew
 POSCAR, INCAR and KPOINTS ok, starting setup
 FFT: planning ...
 WAVECAR not read
 entering main loop
       N       E                     dE             d eps       ncg     rms          rms(c)
DAV:   1     0.227686968038E+03    0.22769E+03   -0.14345E+04  1044   0.176E+03
DAV:   2     0.902518723980E+01   -0.21866E+03   -0.21580E+03  1048   0.420E+02
DAV:   3    -0.970116950001E+01   -0.18726E+02   -0.18459E+02  1784   0.131E+02
DAV:   4    -0.110513857013E+02   -0.13502E+01   -0.13404E+01  1750   0.261E+01
DAV:   5    -0.111793066465E+02   -0.12792E+00   -0.12788E+00  1652   0.480E+00    0.205E+00
DAV:   6    -0.110552940290E+02    0.12401E+00   -0.11940E-01  1458   0.366E+00    0.111E+00
DAV:   7    -0.110000739672E+02    0.55220E-01   -0.12238E-01  1294   0.344E+00    0.296E-01
DAV:   8    -0.109996988526E+02    0.37511E-03   -0.11018E-02  1442   0.101E+00    0.750E-02
DAV:   9    -0.109996329588E+02    0.65894E-04   -0.52495E-04  1634   0.278E-01    0.299E-02
DAV:  10    -0.109996181978E+02    0.14761E-04   -0.38195E-05  1382   0.783E-02    0.101E-02
DAV:  11    -0.109996137097E+02    0.44881E-05   -0.42532E-06   686   0.186E-02
   1 F= -.10999614E+02 E0= -.10999614E+02  d E =-.109996E+02
 curvature:   0.00 expect dE= 0.000E+00 dE for cont linesearch  0.000E+00
 trial: gam= 0.00000 g(F)=  0.380E-39 g(S)=  0.238E-01 ort = 0.000E+00 (trialstep = 0.100E+01)
 search vector abs. value=  0.238E-01
 bond charge predicted
       N       E                     dE             d eps       ncg     rms          rms(c)
DAV:   1    -0.112185985418E+02   -0.21898E+00   -0.56888E+00  1118   0.364E+01    0.242E+00
DAV:   2    -0.110517533057E+02    0.16685E+00   -0.36015E-01  1278   0.813E+00    0.115E+00
DAV:   3    -0.110179408849E+02    0.33812E-01   -0.11980E-01  1242   0.457E+00    0.244E-01
DAV:   4    -0.110165874488E+02    0.13534E-02   -0.55411E-03  1428   0.582E-01    0.103E-01
DAV:   5    -0.110164677397E+02    0.11971E-03   -0.94672E-04  1450   0.310E-01    0.459E-02
DAV:   6    -0.110164256777E+02    0.42062E-04   -0.14632E-04  1320   0.172E-01    0.101E-02
DAV:   7    -0.110164256046E+02    0.73097E-07   -0.65686E-06   588   0.371E-02
   2 F= -.11016426E+02 E0= -.11016426E+02  d E =-.168119E-01
 trial-energy change:   -0.016812  1 .order   -0.017007   -0.023816   -0.010197
 step:   1.8941(harm=  1.7488)  dis= 0.00000  next Energy=   -11.020845 (dE=-0.212E-01)
 bond charge predicted
       N       E                     dE             d eps       ncg     rms          rms(c)
DAV:   1    -0.111799379370E+02   -0.16351E+00   -0.44692E+00  1116   0.321E+01    0.215E+00
DAV:   2    -0.110485056247E+02    0.13143E+00   -0.28508E-01  1270   0.718E+00    0.102E+00
DAV:   3    -0.110220072566E+02    0.26498E-01   -0.93527E-02  1238   0.403E+00    0.218E-01
DAV:   4    -0.110209329344E+02    0.10743E-02   -0.42767E-03  1420   0.499E-01    0.924E-02
DAV:   5    -0.110208338526E+02    0.99082E-04   -0.73460E-04  1438   0.268E-01    0.399E-02
DAV:   6    -0.110208015405E+02    0.32312E-04   -0.11579E-04  1304   0.152E-01    0.901E-03
DAV:   7    -0.110208018862E+02   -0.34561E-06   -0.49776E-06   568   0.327E-02
   3 F= -.11020802E+02 E0= -.11020802E+02  d E =-.211882E-01
 curvature:  -0.84 expect dE=-0.193E-04 dE for cont linesearch -0.193E-04
 ZBRENT: interpolating
 opt :   1.8337  next Energy=   -11.020824 (dE=-0.212E-01)
 bond charge predicted
       N       E                     dE             d eps       ncg     rms          rms(c)
DAV:   1    -0.110215319737E+02   -0.73043E-03   -0.19792E-02  1114   0.208E+00    0.146E-01
DAV:   2    -0.110209187610E+02    0.61321E-03   -0.13035E-03  1242   0.484E-01    0.680E-02
DAV:   3    -0.110208072216E+02    0.11154E-03   -0.40899E-04  1202   0.267E-01    0.148E-02
DAV:   4    -0.110208070742E+02    0.14731E-06   -0.18476E-05   774   0.325E-02    0.613E-03
DAV:   5    -0.110208093563E+02   -0.22821E-05   -0.40424E-06   536   0.248E-02
   4 F= -.11020809E+02 E0= -.11020809E+02  d E =-.211956E-01
 curvature:  -0.97 expect dE=-0.156E-04 dE for cont linesearch -0.156E-04
 ZBRENT: interpolating
 opt :   1.8612  next Energy=   -11.020818 (dE=-0.212E-01)
 bond charge predicted
       N       E                     dE             d eps       ncg     rms          rms(c)
DAV:   1    -0.110209629857E+02   -0.15591E-03   -0.40345E-03  1112   0.939E-01    0.669E-02
DAV:   2    -0.110208419842E+02    0.12100E-03   -0.27890E-04  1270   0.223E-01    0.315E-02
DAV:   3    -0.110208153151E+02    0.26669E-04   -0.84972E-05  1078   0.122E-01    0.698E-03
DAV:   4    -0.110208122926E+02    0.30225E-05   -0.31810E-06   528   0.142E-02    0.286E-03
DAV:   5    -0.110208109656E+02    0.13271E-05   -0.10215E-06   528   0.123E-02
   5 F= -.11020811E+02 E0= -.11020811E+02  d E =-.211973E-01
 curvature:  -0.53 expect dE=-0.746E-06 dE for cont linesearch -0.746E-06
 ZBRENT: interpolating
 opt :   1.8550  next Energy=   -11.020812 (dE=-0.212E-01)
 bond charge predicted
       N       E                     dE             d eps       ncg     rms          rms(c)
DAV:   1    -0.110208193050E+02   -0.70124E-05   -0.20767E-04   992   0.213E-01    0.154E-02
DAV:   2    -0.110208114451E+02    0.78598E-05   -0.13954E-05   528   0.520E-02    0.707E-03
DAV:   3    -0.110208106961E+02    0.74907E-06   -0.53629E-06   534   0.306E-02    0.159E-03
DAV:   4    -0.110208114108E+02   -0.71477E-06   -0.71702E-07   532   0.911E-03    0.342E-04
DAV:   5    -0.110208113733E+02    0.37530E-07   -0.25261E-07   532   0.582E-03
   6 F= -.11020811E+02 E0= -.11020811E+02  d E =-.211977E-01
 curvature:  -0.41 expect dE=-0.151E-08 dE for cont linesearch -0.151E-08
 trial: gam= 0.00000 g(F)=  0.156E-37 g(S)=  0.369E-08 ort =-0.937E-05 (trialstep = 0.117E+01)
 search vector abs. value=  0.379E-08
 reached required accuracy - stopping structural energy minimisation
