unknown system                          
           1
     0.000000    3.436678    3.436678
     3.436678    0.000000    3.436678
     3.436678    3.436678    0.000000
   Bi   Li   Na
   1   2   1
Direct configuration=     1
   0.25000015  0.25000015  0.25000015
   0.00000000  0.00000000  0.00000000
   0.49999884  0.49999884  0.49999884
   0.75000044  0.75000044  0.75000044
unknown system                          
           1
    -0.000000    3.470306    3.470306
     3.470306    0.000000    3.470306
     3.470306    3.470306   -0.000000
   Bi   Li   Na
   1   2   1
Direct configuration=     2
   0.25000015  0.25000015  0.25000015
  -0.00000000  0.00000000 -0.00000000
   0.49999884  0.49999884  0.49999884
   0.75000044  0.75000044  0.75000044
unknown system                          
           1
    -0.000000    3.500372    3.500372
     3.500372    0.000000    3.500372
     3.500372    3.500372   -0.000000
   Bi   Li   Na
   1   2   1
Direct configuration=     3
   0.25000015  0.25000015  0.25000015
  -0.00000000  0.00000000 -0.00000000
   0.49999884  0.49999884  0.49999884
   0.75000044  0.75000044  0.75000044
unknown system                          
           1
    -0.000000    3.498342    3.498342
     3.498342    0.000000    3.498342
     3.498342    3.498342   -0.000000
   Bi   Li   Na
   1   2   1
Direct configuration=     4
   0.25000015  0.25000015  0.25000015
  -0.00000000  0.00000000 -0.00000000
   0.49999884  0.49999884  0.49999884
   0.75000044  0.75000044  0.75000044
unknown system                          
           1
    -0.000000    3.499267    3.499267
     3.499267    0.000000    3.499267
     3.499267    3.499267   -0.000000
   Bi   Li   Na
   1   2   1
Direct configuration=     5
   0.25000015  0.25000015  0.25000015
  -0.00000000  0.00000000 -0.00000000
   0.49999884  0.49999884  0.49999884
   0.75000044  0.75000044  0.75000044
unknown system                          
           1
    -0.000000    3.499056    3.499056
     3.499056    0.000000    3.499056
     3.499056    3.499056   -0.000000
   Bi   Li   Na
   1   2   1
Direct configuration=     6
   0.25000015  0.25000015  0.25000015
  -0.00000000  0.00000000 -0.00000000
   0.49999884  0.49999884  0.49999884
   0.75000044  0.75000044  0.75000044
