   4   4   0   0
  0.4899757E+02  0.6520034E-09  0.6520034E-09  0.6520034E-09  0.5000000E-15
  1.000000000000000E-004
  CAR 
 unknown system                          
      6.68458706    -27.50014452  301      1.89817579      1.00000000
    -27.500  0.0000E+00  0.0000E+00
    -27.386  0.0000E+00  0.0000E+00
    -27.272  0.0000E+00  0.0000E+00
    -27.158  0.0000E+00  0.0000E+00
    -27.044  0.0000E+00  0.0000E+00
    -26.930  0.0000E+00  0.0000E+00
    -26.816  0.0000E+00  0.0000E+00
    -26.703  0.0000E+00  0.0000E+00
    -26.589  0.0000E+00  0.0000E+00
    -26.475  0.0000E+00  0.0000E+00
    -26.361  0.0000E+00  0.0000E+00
    -26.247  0.0000E+00  0.0000E+00
    -26.133  0.7626E-06  0.8690E-07
    -26.019  0.4122E+00  0.4697E-01
    -25.905  0.2864E+02  0.3311E+01
    -25.791  0.6046E+01  0.4000E+01
    -25.677  0.5675E-03  0.4000E+01
    -25.563  0.3042E-11  0.4000E+01
    -25.449  0.0000E+00  0.4000E+01
    -25.335  0.0000E+00  0.4000E+01
    -25.221  0.0000E+00  0.4000E+01
    -25.107  0.0000E+00  0.4000E+01
    -24.993  0.0000E+00  0.4000E+01
    -24.879  0.0000E+00  0.4000E+01
    -24.765  0.0000E+00  0.4000E+01
    -24.651  0.0000E+00  0.4000E+01
    -24.537  0.0000E+00  0.4000E+01
    -24.424  0.0000E+00  0.4000E+01
    -24.310  0.0000E+00  0.4000E+01
    -24.196  0.0000E+00  0.4000E+01
    -24.082  0.0000E+00  0.4000E+01
    -23.968  0.0000E+00  0.4000E+01
    -23.854  0.0000E+00  0.4000E+01
    -23.740  0.0000E+00  0.4000E+01
    -23.626  0.0000E+00  0.4000E+01
    -23.512  0.0000E+00  0.4000E+01
    -23.398  0.0000E+00  0.4000E+01
    -23.284  0.0000E+00  0.4000E+01
    -23.170  0.0000E+00  0.4000E+01
    -23.056  0.0000E+00  0.4000E+01
    -22.942  0.0000E+00  0.4000E+01
    -22.828  0.0000E+00  0.4000E+01
    -22.714  0.0000E+00  0.4000E+01
    -22.600  0.0000E+00  0.4000E+01
    -22.486  0.0000E+00  0.4000E+01
    -22.372  0.0000E+00  0.4000E+01
    -22.258  0.0000E+00  0.4000E+01
    -22.145  0.0000E+00  0.4000E+01
    -22.031  0.0000E+00  0.4000E+01
    -21.917  0.0000E+00  0.4000E+01
    -21.803  0.0000E+00  0.4000E+01
    -21.689  0.0000E+00  0.4000E+01
    -21.575  0.7780E-06  0.4000E+01
    -21.461  0.2942E+00  0.4034E+01
    -21.347  0.1486E+02  0.5727E+01
    -21.233  0.2393E+01  0.6000E+01
    -21.119  0.1371E-03  0.6000E+01
    -21.005  0.4048E-12  0.6000E+01
    -20.891  0.0000E+00  0.6000E+01
    -20.777  0.0000E+00  0.6000E+01
    -20.663  0.0000E+00  0.6000E+01
    -20.549  0.0000E+00  0.6000E+01
    -20.435  0.0000E+00  0.6000E+01
    -20.321  0.0000E+00  0.6000E+01
    -20.207  0.0000E+00  0.6000E+01
    -20.093  0.0000E+00  0.6000E+01
    -19.980  0.0000E+00  0.6000E+01
    -19.866  0.0000E+00  0.6000E+01
    -19.752  0.0000E+00  0.6000E+01
    -19.638  0.0000E+00  0.6000E+01
    -19.524  0.0000E+00  0.6000E+01
    -19.410  0.0000E+00  0.6000E+01
    -19.296  0.1204E-06  0.6000E+01
    -19.182  0.2784E+00  0.6032E+01
    -19.068  0.6000E+02  0.1287E+02
    -18.954  0.2748E+02  0.1600E+02
    -18.840  0.9358E-02  0.1600E+02
    -18.726  0.2001E-09  0.1600E+02
    -18.612  0.0000E+00  0.1600E+02
    -18.498  0.0000E+00  0.1600E+02
    -18.384  0.0000E+00  0.1600E+02
    -18.270  0.0000E+00  0.1600E+02
    -18.156  0.0000E+00  0.1600E+02
    -18.042  0.0000E+00  0.1600E+02
    -17.928  0.0000E+00  0.1600E+02
    -17.814  0.0000E+00  0.1600E+02
    -17.701  0.0000E+00  0.1600E+02
    -17.587  0.0000E+00  0.1600E+02
    -17.473  0.0000E+00  0.1600E+02
    -17.359  0.0000E+00  0.1600E+02
    -17.245  0.0000E+00  0.1600E+02
    -17.131  0.0000E+00  0.1600E+02
    -17.017  0.0000E+00  0.1600E+02
    -16.903  0.0000E+00  0.1600E+02
    -16.789  0.0000E+00  0.1600E+02
    -16.675  0.0000E+00  0.1600E+02
    -16.561  0.0000E+00  0.1600E+02
    -16.447  0.0000E+00  0.1600E+02
    -16.333  0.0000E+00  0.1600E+02
    -16.219  0.0000E+00  0.1600E+02
    -16.105  0.0000E+00  0.1600E+02
    -15.991  0.0000E+00  0.1600E+02
    -15.877  0.0000E+00  0.1600E+02
    -15.763  0.0000E+00  0.1600E+02
    -15.649  0.0000E+00  0.1600E+02
    -15.535  0.0000E+00  0.1600E+02
    -15.422  0.0000E+00  0.1600E+02
    -15.308  0.0000E+00  0.1600E+02
    -15.194  0.0000E+00  0.1600E+02
    -15.080  0.0000E+00  0.1600E+02
    -14.966  0.0000E+00  0.1600E+02
    -14.852  0.0000E+00  0.1600E+02
    -14.738  0.0000E+00  0.1600E+02
    -14.624  0.0000E+00  0.1600E+02
    -14.510  0.0000E+00  0.1600E+02
    -14.396  0.0000E+00  0.1600E+02
    -14.282  0.0000E+00  0.1600E+02
    -14.168  0.0000E+00  0.1600E+02
    -14.054  0.0000E+00  0.1600E+02
    -13.940  0.0000E+00  0.1600E+02
    -13.826  0.0000E+00  0.1600E+02
    -13.712  0.0000E+00  0.1600E+02
    -13.598  0.0000E+00  0.1600E+02
    -13.484  0.0000E+00  0.1600E+02
    -13.370  0.0000E+00  0.1600E+02
    -13.257  0.0000E+00  0.1600E+02
    -13.143  0.0000E+00  0.1600E+02
    -13.029  0.0000E+00  0.1600E+02
    -12.915  0.0000E+00  0.1600E+02
    -12.801  0.0000E+00  0.1600E+02
    -12.687  0.0000E+00  0.1600E+02
    -12.573  0.0000E+00  0.1600E+02
    -12.459  0.0000E+00  0.1600E+02
    -12.345  0.0000E+00  0.1600E+02
    -12.231  0.0000E+00  0.1600E+02
    -12.117  0.0000E+00  0.1600E+02
    -12.003  0.0000E+00  0.1600E+02
    -11.889  0.0000E+00  0.1600E+02
    -11.775  0.0000E+00  0.1600E+02
    -11.661  0.0000E+00  0.1600E+02
    -11.547  0.0000E+00  0.1600E+02
    -11.433  0.0000E+00  0.1600E+02
    -11.319  0.0000E+00  0.1600E+02
    -11.205  0.0000E+00  0.1600E+02
    -11.091  0.0000E+00  0.1600E+02
    -10.978  0.0000E+00  0.1600E+02
    -10.864  0.0000E+00  0.1600E+02
    -10.750  0.0000E+00  0.1600E+02
    -10.636  0.0000E+00  0.1600E+02
    -10.522  0.0000E+00  0.1600E+02
    -10.408  0.4112E-07  0.1600E+02
    -10.294  0.3693E-01  0.1600E+02
    -10.180  0.1159E+02  0.1732E+02
    -10.066  0.5293E+02  0.2336E+02
     -9.952  0.3967E+02  0.2788E+02
     -9.838  0.1085E+01  0.2800E+02
     -9.724  0.1554E-04  0.2800E+02
     -9.610  0.1637E-13  0.2800E+02
     -9.496  0.0000E+00  0.2800E+02
     -9.382  0.0000E+00  0.2800E+02
     -9.268  0.0000E+00  0.2800E+02
     -9.154  0.0000E+00  0.2800E+02
     -9.040  0.0000E+00  0.2800E+02
     -8.926  0.0000E+00  0.2800E+02
     -8.812  0.0000E+00  0.2800E+02
     -8.699  0.0000E+00  0.2800E+02
     -8.585  0.0000E+00  0.2800E+02
     -8.471  0.2581E-09  0.2800E+02
     -8.357  0.3445E-02  0.2800E+02
     -8.243  0.7342E+01  0.2884E+02
     -8.129  0.4264E+02  0.3370E+02
     -8.015  0.2667E+01  0.3400E+02
     -7.901  0.8628E-04  0.3400E+02
     -7.787  0.2083E-12  0.3400E+02
     -7.673  0.0000E+00  0.3400E+02
     -7.559  0.0000E+00  0.3400E+02
     -7.445  0.0000E+00  0.3400E+02
     -7.331  0.5709E-17  0.3400E+02
     -7.217  0.1910E-07  0.3400E+02
     -7.103  0.6070E-02  0.3400E+02
     -6.989  0.2419E+01  0.3428E+02
     -6.875  0.1457E+02  0.3594E+02
     -6.761  0.5582E+00  0.3600E+02
     -6.647  0.4944E-05  0.3600E+02
     -6.534  0.1401E-14  0.3600E+02
     -6.420  0.0000E+00  0.3600E+02
     -6.306  0.0000E+00  0.3600E+02
     -6.192  0.0000E+00  0.3600E+02
     -6.078  0.0000E+00  0.3600E+02
     -5.964  0.0000E+00  0.3600E+02
     -5.850  0.0000E+00  0.3600E+02
     -5.736  0.0000E+00  0.3600E+02
     -5.622  0.0000E+00  0.3600E+02
     -5.508  0.0000E+00  0.3600E+02
     -5.394  0.0000E+00  0.3600E+02
     -5.280  0.0000E+00  0.3600E+02
     -5.166  0.0000E+00  0.3600E+02
     -5.052  0.0000E+00  0.3600E+02
     -4.938  0.0000E+00  0.3600E+02
     -4.824  0.0000E+00  0.3600E+02
     -4.710  0.0000E+00  0.3600E+02
     -4.596  0.0000E+00  0.3600E+02
     -4.482  0.0000E+00  0.3600E+02
     -4.368  0.0000E+00  0.3600E+02
     -4.255  0.0000E+00  0.3600E+02
     -4.141  0.0000E+00  0.3600E+02
     -4.027  0.0000E+00  0.3600E+02
     -3.913  0.0000E+00  0.3600E+02
     -3.799  0.0000E+00  0.3600E+02
     -3.685  0.0000E+00  0.3600E+02
     -3.571  0.0000E+00  0.3600E+02
     -3.457  0.0000E+00  0.3600E+02
     -3.343  0.0000E+00  0.3600E+02
     -3.229  0.0000E+00  0.3600E+02
     -3.115  0.0000E+00  0.3600E+02
     -3.001  0.0000E+00  0.3600E+02
     -2.887  0.0000E+00  0.3600E+02
     -2.773  0.0000E+00  0.3600E+02
     -2.659  0.0000E+00  0.3600E+02
     -2.545  0.0000E+00  0.3600E+02
     -2.431  0.0000E+00  0.3600E+02
     -2.317  0.0000E+00  0.3600E+02
     -2.203  0.0000E+00  0.3600E+02
     -2.089  0.0000E+00  0.3600E+02
     -1.976  0.0000E+00  0.3600E+02
     -1.862  0.0000E+00  0.3600E+02
     -1.748  0.0000E+00  0.3600E+02
     -1.634  0.0000E+00  0.3600E+02
     -1.520  0.0000E+00  0.3600E+02
     -1.406  0.0000E+00  0.3600E+02
     -1.292  0.0000E+00  0.3600E+02
     -1.178  0.0000E+00  0.3600E+02
     -1.064  0.0000E+00  0.3600E+02
     -0.950  0.0000E+00  0.3600E+02
     -0.836  0.0000E+00  0.3600E+02
     -0.722  0.0000E+00  0.3600E+02
     -0.608  0.0000E+00  0.3600E+02
     -0.494  0.0000E+00  0.3600E+02
     -0.380  0.0000E+00  0.3600E+02
     -0.266  0.0000E+00  0.3600E+02
     -0.152  0.0000E+00  0.3600E+02
     -0.038  0.0000E+00  0.3600E+02
      0.076  0.0000E+00  0.3600E+02
      0.189  0.0000E+00  0.3600E+02
      0.303  0.0000E+00  0.3600E+02
      0.417  0.0000E+00  0.3600E+02
      0.531  0.4591E-10  0.3600E+02
      0.645  0.2191E-03  0.3600E+02
      0.759  0.1583E+00  0.3602E+02
      0.873  0.4011E+01  0.3648E+02
      0.987  0.7294E+01  0.3731E+02
      1.101  0.3915E+01  0.3775E+02
      1.215  0.1669E+01  0.3794E+02
      1.329  0.1855E+01  0.3815E+02
      1.443  0.4624E+01  0.3868E+02
      1.557  0.1011E+02  0.3983E+02
      1.671  0.1281E+02  0.4129E+02
      1.785  0.5628E+01  0.4193E+02
      1.899  0.5783E+00  0.4200E+02
      2.013  0.2833E-01  0.4200E+02
      2.127  0.5919E-02  0.4200E+02
      2.241  0.5299E-06  0.4200E+02
      2.355  0.1532E-10  0.4200E+02
      2.468  0.1767E-03  0.4200E+02
      2.582  0.1791E+00  0.4202E+02
      2.696  0.2988E+00  0.4206E+02
      2.810  0.1829E-02  0.4206E+02
      2.924  0.3454E-02  0.4206E+02
      3.038  0.3583E+00  0.4210E+02
      3.152  0.5497E+00  0.4216E+02
      3.266  0.1013E+01  0.4228E+02
      3.380  0.9402E+00  0.4239E+02
      3.494  0.7345E+00  0.4247E+02
      3.608  0.3360E+01  0.4285E+02
      3.722  0.3700E+01  0.4327E+02
      3.836  0.5043E+01  0.4385E+02
      3.950  0.6113E+01  0.4454E+02
      4.064  0.4757E+01  0.4509E+02
      4.178  0.4380E+01  0.4559E+02
      4.292  0.5398E+01  0.4620E+02
      4.406  0.4253E+01  0.4669E+02
      4.520  0.7105E+01  0.4749E+02
      4.634  0.5292E+01  0.4810E+02
      4.747  0.1045E+02  0.4929E+02
      4.861  0.5522E+01  0.4992E+02
      4.975  0.6173E+00  0.4999E+02
      5.089  0.1259E-01  0.4999E+02
      5.203  0.8837E-01  0.5000E+02
      5.317  0.2071E-02  0.5000E+02
      5.431  0.6866E-08  0.5000E+02
      5.545  0.0000E+00  0.5000E+02
      5.659  0.0000E+00  0.5000E+02
      5.773  0.0000E+00  0.5000E+02
      5.887  0.0000E+00  0.5000E+02
      6.001  0.0000E+00  0.5000E+02
      6.115  0.0000E+00  0.5000E+02
      6.229  0.0000E+00  0.5000E+02
      6.343  0.0000E+00  0.5000E+02
      6.457  0.0000E+00  0.5000E+02
      6.571  0.0000E+00  0.5000E+02
      6.685  0.0000E+00  0.5000E+02
