    4    4    1    1
  0.4899757E+02  0.6520034E-09  0.6520034E-09  0.6520034E-09  0.5000000E-15
  1.000000000000000E-004
  CAR 
 unknown system                          
     42     29     25
 
  0.0000000E+00  0.0000000E+00  0.0000000E+00  0.1953125E-02
    1      -25.946293   1.000000
    2      -25.931086   1.000000
    3      -21.384287   1.000000
    4      -19.087193   1.000000
    5      -19.087187   1.000000
    6      -19.087187   1.000000
    7      -19.082329   1.000000
    8      -19.082329   1.000000
    9      -10.121080   1.000000
   10      -10.121080   1.000000
   11      -10.121078   1.000000
   12      -10.042063   1.000000
   13      -10.042063   1.000000
   14      -10.042059   1.000000
   15       -8.202104   1.000000
   16       -8.202104   1.000000
   17       -8.202087   1.000000
   18       -7.043027   1.000000
   19        1.720789   1.000000
   20        1.720821   1.000000
   21        1.720821   1.000000
   22        1.979310   0.010871
   23        3.666816   0.000000
   24        3.666816   0.000000
   25        4.589618   0.000000
 
  0.1250000E+00  0.0000000E+00  0.0000000E+00  0.1562500E-01
    1      -25.945663   1.000000
    2      -25.931631   1.000000
    3      -21.384493   1.000000
    4      -19.087189   1.000000
    5      -19.087183   1.000000
    6      -19.087157   1.000000
    7      -19.082335   1.000000
    8      -19.082335   1.000000
    9      -10.125865   1.000000
   10      -10.119687   1.000000
   11      -10.119685   1.000000
   12      -10.045757   1.000000
   13      -10.045754   1.000000
   14      -10.041167   1.000000
   15       -8.211076   1.000000
   16       -8.199132   1.000000
   17       -8.199118   1.000000
   18       -7.020641   1.000000
   19        1.296844   1.000000
   20        1.676316   1.000000
   21        1.676344   1.000000
   22        2.582585   0.000000
   23        3.840932   0.000000
   24        3.840932   0.000000
   25        4.443094   0.000000
 
  0.2500000E+00  0.0000000E+00  0.0000000E+00  0.1562500E-01
    1      -25.943901   1.000000
    2      -25.933196   1.000000
    3      -21.384981   1.000000
    4      -19.087173   1.000000
    5      -19.087168   1.000000
    6      -19.087037   1.000000
    7      -19.082353   1.000000
    8      -19.082353   1.000000
    9      -10.130376   1.000000
   10      -10.115344   1.000000
   11      -10.115341   1.000000
   12      -10.055680   1.000000
   13      -10.055677   1.000000
   14      -10.047631   1.000000
   15       -8.224477   1.000000
   16       -8.191963   1.000000
   17       -8.191948   1.000000
   18       -6.975067   1.000000
   19        0.971226   1.000000
   20        1.589724   1.000000
   21        1.589750   1.000000
   22        3.320677   0.000000
   23        4.285404   0.000000
   24        4.285408   0.000000
   25        4.298668   0.000000
 
  0.3750000E+00  0.0000000E+00  0.0000000E+00  0.1562500E-01
    1      -25.941337   1.000000
    2      -25.935563   1.000000
    3      -21.385465   1.000000
    4      -19.087149   1.000000
    5      -19.087144   1.000000
    6      -19.086921   1.000000
    7      -19.082356   1.000000
    8      -19.082356   1.000000
    9      -10.127361   1.000000
   10      -10.108365   1.000000
   11      -10.108360   1.000000
   12      -10.068204   1.000000
   13      -10.068203   1.000000
   14      -10.063318   1.000000
   15       -8.228859   1.000000
   16       -8.184815   1.000000
   17       -8.184801   1.000000
   18       -6.939076   1.000000
   19        0.803078   1.000000
   20        1.523089   1.000000
   21        1.523114   1.000000
   22        3.762781   0.000000
   23        4.647317   0.000000
   24        4.658124   0.000000
   25        4.658141   0.000000
 
  0.5000000E+00  0.0000000E+00  0.0000000E+00  0.7812500E-02
    1      -25.938440   1.000000
    2      -25.938376   1.000000
    3      -21.385652   1.000000
    4      -19.087122   1.000000
    5      -19.087117   1.000000
    6      -19.086855   1.000000
    7      -19.082347   1.000000
    8      -19.082347   1.000000
    9      -10.123668   1.000000
   10      -10.103525   1.000000
   11      -10.103518   1.000000
   12      -10.075328   1.000000
   13      -10.075327   1.000000
   14      -10.072603   1.000000
   15       -8.228666   1.000000
   16       -8.181860   1.000000
   17       -8.181846   1.000000
   18       -6.926385   1.000000
   19        0.749588   1.000000
   20        1.499706   1.000000
   21        1.499731   1.000000
   22        3.991407   0.000000
   23        4.636947   0.000000
   24        4.709476   0.000000
   25        4.709481   0.000000
 
  0.1250000E+00  0.1250000E+00  0.0000000E+00  0.1171875E-01
    1      -25.945483   1.000000
    2      -25.931785   1.000000
    3      -21.384564   1.000000
    4      -19.087183   1.000000
    5      -19.087179   1.000000
    6      -19.087144   1.000000
    7      -19.082353   1.000000
    8      -19.082329   1.000000
    9      -10.131982   1.000000
   10      -10.131980   1.000000
   11      -10.102788   1.000000
   12      -10.061875   1.000000
   13      -10.035867   1.000000
   14      -10.035865   1.000000
   15       -8.217903   1.000000
   16       -8.196107   1.000000
   17       -8.196096   1.000000
   18       -7.014344   1.000000
   19        1.180051   1.000000
   20        1.732064   0.999999
   21        1.732085   0.999999
   22        2.611252   0.000000
   23        3.765929   0.000000
   24        4.037619   0.000000
   25        4.290971   0.000000
 
  0.2500000E+00  0.1250000E+00  0.0000000E+00  0.4687500E-01
    1      -25.944177   1.000000
    2      -25.932932   1.000000
    3      -21.384956   1.000000
    4      -19.087165   1.000000
    5      -19.087155   1.000000
    6      -19.087067   1.000000
    7      -19.082356   1.000000
    8      -19.082327   1.000000
    9      -10.141037   1.000000
   10      -10.138744   1.000000
   11      -10.087078   1.000000
   12      -10.081340   1.000000
   13      -10.034666   1.000000
   14      -10.034264   1.000000
   15       -8.229305   1.000000
   16       -8.190957   1.000000
   17       -8.188967   1.000000
   18       -6.980093   1.000000
   19        0.958792   1.000000
   20        1.644467   1.000000
   21        1.698224   1.000000
   22        3.153990   0.000000
   23        4.024621   0.000000
   24        4.059124   0.000000
   25        4.468132   0.000000
 
  0.3750000E+00  0.1250000E+00  0.0000000E+00  0.4687500E-01
    1      -25.942004   1.000000
    2      -25.934904   1.000000
    3      -21.385440   1.000000
    4      -19.087137   1.000000
    5      -19.087122   1.000000
    6      -19.086957   1.000000
    7      -19.082357   1.000000
    8      -19.082341   1.000000
    9      -10.144768   1.000000
   10      -10.137553   1.000000
   11      -10.104580   1.000000
   12      -10.067197   1.000000
   13      -10.044610   1.000000
   14      -10.041313   1.000000
   15       -8.229928   1.000000
   16       -8.187285   1.000000
   17       -8.181921   1.000000
   18       -6.946597   1.000000
   19        0.853968   1.000000
   20        1.511364   1.000000
   21        1.616461   1.000000
   22        3.648572   0.000000
   23        4.231193   0.000000
   24        4.477413   0.000000
   25        4.684132   0.000000
 
  0.5000000E+00  0.1250000E+00  0.0000000E+00  0.4687500E-01
    1      -25.939350   1.000000
    2      -25.937437   1.000000
    3      -21.385733   1.000000
    4      -19.087123   1.000000
    5      -19.087103   1.000000
    6      -19.086886   1.000000
    7      -19.082350   1.000000
    8      -19.082344   1.000000
    9      -10.149310   1.000000
   10      -10.127403   1.000000
   11      -10.111518   1.000000
   12      -10.064943   1.000000
   13      -10.053645   1.000000
   14      -10.048070   1.000000
   15       -8.224059   1.000000
   16       -8.186036   1.000000
   17       -8.179058   1.000000
   18       -6.929992   1.000000
   19        0.825411   1.000000
   20        1.448761   1.000000
   21        1.540596   1.000000
   22        3.922497   0.000000
   23        4.473799   0.000000
   24        4.688608   0.000000
   25        4.725502   0.000000
 
 -0.3750000E+00  0.1250000E+00  0.0000000E+00  0.4687500E-01
    1      -25.940182   1.000000
    2      -25.936633   1.000000
    3      -21.385667   1.000000
    4      -19.087134   1.000000
    5      -19.087101   1.000000
    6      -19.086903   1.000000
    7      -19.082359   1.000000
    8      -19.082338   1.000000
    9      -10.153984   1.000000
   10      -10.109666   1.000000
   11      -10.106651   1.000000
   12      -10.078767   1.000000
   13      -10.069016   1.000000
   14      -10.033816   1.000000
   15       -8.223160   1.000000
   16       -8.186061   1.000000
   17       -8.182049   1.000000
   18       -6.933175   1.000000
   19        0.835769   1.000000
   20        1.494602   1.000000
   21        1.499320   1.000000
   22        3.888245   0.000000
   23        4.421234   0.000000
   24        4.648742   0.000000
   25        4.703870   0.000000
 
 -0.2500000E+00  0.1250000E+00  0.0000000E+00  0.4687500E-01
    1      -25.942737   1.000000
    2      -25.934236   1.000000
    3      -21.385278   1.000000
    4      -19.087153   1.000000
    5      -19.087128   1.000000
    6      -19.086995   1.000000
    7      -19.082364   1.000000
    8      -19.082335   1.000000
    9      -10.151144   1.000000
   10      -10.113519   1.000000
   11      -10.092210   1.000000
   12      -10.080923   1.000000
   13      -10.068690   1.000000
   14      -10.026587   1.000000
   15       -8.225926   1.000000
   16       -8.189164   1.000000
   17       -8.187677   1.000000
   18       -6.955937   1.000000
   19        0.896920   1.000000
   20        1.509984   1.000000
   21        1.619456   1.000000
   22        3.551456   0.000000
   23        4.208695   0.000000
   24        4.387699   0.000000
   25        4.596129   0.000000
 
 -0.1250000E+00  0.1250000E+00  0.0000000E+00  0.2343750E-01
    1      -25.944685   1.000000
    2      -25.932491   1.000000
    3      -21.384790   1.000000
    4      -19.087167   1.000000
    5      -19.087160   1.000000
    6      -19.087098   1.000000
    7      -19.082349   1.000000
    8      -19.082335   1.000000
    9      -10.139761   1.000000
   10      -10.120375   1.000000
   11      -10.104502   1.000000
   12      -10.063136   1.000000
   13      -10.052448   1.000000
   14      -10.030517   1.000000
   15       -8.221128   1.000000
   16       -8.196243   1.000000
   17       -8.192637   1.000000
   18       -6.992498   1.000000
   19        1.060656   1.000000
   20        1.578140   1.000000
   21        1.716719   1.000000
   22        3.008854   0.000000
   23        4.009428   0.000000
   24        4.214098   0.000000
   25        4.242863   0.000000
 
  0.2500000E+00  0.2500000E+00  0.0000000E+00  0.1171875E-01
    1      -25.943521   1.000000
    2      -25.933479   1.000000
    3      -21.385227   1.000000
    4      -19.087148   1.000000
    5      -19.087144   1.000000
    6      -19.087027   1.000000
    7      -19.082359   1.000000
    8      -19.082328   1.000000
    9      -10.156003   1.000000
   10      -10.156001   1.000000
   11      -10.109765   1.000000
   12      -10.058101   1.000000
   13      -10.022874   1.000000
   14      -10.022872   1.000000
   15       -8.242630   1.000000
   16       -8.182003   1.000000
   17       -8.181993   1.000000
   18       -6.966074   1.000000
   19        0.854499   1.000000
   20        1.757249   0.999966
   21        1.757270   0.999966
   22        3.264708   0.000000
   23        3.705027   0.000000
   24        4.061952   0.000000
   25        4.732977   0.000000
 
  0.3750000E+00  0.2500000E+00  0.0000000E+00  0.4687500E-01
    1      -25.942073   1.000000
    2      -25.934765   1.000000
    3      -21.385615   1.000000
    4      -19.087111   1.000000
    5      -19.087098   1.000000
    6      -19.086956   1.000000
    7      -19.082333   1.000000
    8      -19.082317   1.000000
    9      -10.167631   1.000000
   10      -10.163100   1.000000
   11      -10.130572   1.000000
   12      -10.035926   1.000000
   13      -10.023605   1.000000
   14      -10.021100   1.000000
   15       -8.242993   1.000000
   16       -8.177827   1.000000
   17       -8.175120   1.000000
   18       -6.947868   1.000000
   19        0.851519   1.000000
   20        1.653835   1.000000
   21        1.726543   0.999999
   22        3.526089   0.000000
   23        3.736764   0.000000
   24        4.383300   0.000000
   25        4.622716   0.000000
 
  0.5000000E+00  0.2500000E+00  0.0000000E+00  0.4687500E-01
    1      -25.940106   1.000000
    2      -25.936609   1.000000
    3      -21.385910   1.000000
    4      -19.087100   1.000000
    5      -19.087044   1.000000
    6      -19.086906   1.000000
    7      -19.082332   1.000000
    8      -19.082318   1.000000
    9      -10.182166   1.000000
   10      -10.157733   1.000000
   11      -10.128648   1.000000
   12      -10.041438   1.000000
   13      -10.028569   1.000000
   14      -10.017980   1.000000
   15       -8.228435   1.000000
   16       -8.182323   1.000000
   17       -8.172348   1.000000
   18       -6.936738   1.000000
   19        0.952172   1.000000
   20        1.437484   1.000000
   21        1.641375   1.000000
   22        3.666167   0.000000
   23        4.150059   0.000000
   24        4.504156   0.000000
   25        4.695251   0.000000
 
 -0.3750000E+00  0.2500000E+00  0.0000000E+00  0.4687500E-01
    1      -25.938761   1.000000
    2      -25.937944   1.000000
    3      -21.385934   1.000000
    4      -19.087107   1.000000
    5      -19.087013   1.000000
    6      -19.086920   1.000000
    7      -19.082342   1.000000
    8      -19.082320   1.000000
    9      -10.186887   1.000000
   10      -10.140335   1.000000
   11      -10.112227   1.000000
   12      -10.068038   1.000000
   13      -10.043620   1.000000
   14      -10.008747   1.000000
   15       -8.210659   1.000000
   16       -8.194365   1.000000
   17       -8.175287   1.000000
   18       -6.933962   1.000000
   19        1.020886   1.000000
   20        1.334645   1.000000
   21        1.552232   1.000000
   22        3.985576   0.000000
   23        4.040867   0.000000
   24        4.672471   0.000000
   25        4.736700   0.000000
 
 -0.2500000E+00  0.2500000E+00  0.0000000E+00  0.2343750E-01
    1      -25.940917   1.000000
    2      -25.935895   1.000000
    3      -21.385676   1.000000
    4      -19.087130   1.000000
    5      -19.087053   1.000000
    6      -19.086960   1.000000
    7      -19.082358   1.000000
    8      -19.082324   1.000000
    9      -10.174771   1.000000
   10      -10.114304   1.000000
   11      -10.095093   1.000000
   12      -10.090634   1.000000
   13      -10.064201   1.000000
   14      -10.010789   1.000000
   15       -8.215912   1.000000
   16       -8.191991   1.000000
   17       -8.182248   1.000000
   18       -6.939971   1.000000
   19        0.931584   1.000000
   20        1.486806   1.000000
   21        1.498917   1.000000
   22        3.849421   0.000000
   23        4.278679   0.000000
   24        4.319046   0.000000
   25        4.599742   0.000000
 
  0.3750000E+00  0.3750000E+00  0.0000000E+00  0.1171875E-01
    1      -25.941556   1.000000
    2      -25.935171   1.000000
    3      -21.385883   1.000000
    4      -19.087081   1.000000
    5      -19.087077   1.000000
    6      -19.086908   1.000000
    7      -19.082311   1.000000
    8      -19.082309   1.000000
    9      -10.178278   1.000000
   10      -10.178275   1.000000
   11      -10.157604   1.000000
   12      -10.012631   1.000000
   13      -10.011149   1.000000
   14      -10.011147   1.000000
   15       -8.251362   1.000000
   16       -8.168416   1.000000
   17       -8.168406   1.000000
   18       -6.944939   1.000000
   19        0.872921   1.000000
   20        1.779572   0.999603
   21        1.779593   0.999602
   22        3.230001   0.000000
   23        3.688042   0.000000
   24        4.457034   0.000000
   25        4.549916   0.000000
 
  0.5000000E+00  0.3750000E+00  0.0000000E+00  0.4687500E-01
    1      -25.940583   1.000000
    2      -25.936062   1.000000
    3      -21.386090   1.000000
    4      -19.087077   1.000000
    5      -19.087048   1.000000
    6      -19.086878   1.000000
    7      -19.082311   1.000000
    8      -19.082299   1.000000
    9      -10.194570   1.000000
   10      -10.179374   1.000000
   11      -10.155422   1.000000
   12      -10.016673   1.000000
   13      -10.012139   1.000000
   14       -9.999600   1.000000
   15       -8.243914   1.000000
   16       -8.168874   1.000000
   17       -8.165677   1.000000
   18       -6.941786   1.000000
   19        0.974024   1.000000
   20        1.636894   1.000000
   21        1.744672   0.999993
   22        3.279389   0.000000
   23        3.704606   0.000000
   24        4.516851   0.000000
   25        4.849501   0.000000
 
 -0.3750000E+00  0.3750000E+00  0.0000000E+00  0.2343750E-01
    1      -25.939321   1.000000
    2      -25.937316   1.000000
    3      -21.386108   1.000000
    4      -19.087081   1.000000
    5      -19.086990   1.000000
    6      -19.086907   1.000000
    7      -19.082322   1.000000
    8      -19.082296   1.000000
    9      -10.202253   1.000000
   10      -10.165786   1.000000
   11      -10.133953   1.000000
   12      -10.039286   1.000000
   13      -10.023473   1.000000
   14       -9.997610   1.000000
   15       -8.225460   1.000000
   16       -8.180623   1.000000
   17       -8.168515   1.000000
   18       -6.937996   1.000000
   19        1.118889   1.000000
   20        1.340441   1.000000
   21        1.651159   1.000000
   22        3.599175   0.000000
   23        3.856941   0.000000
   24        4.745846   0.000000
   25        4.788018   0.000000
 
  0.5000000E+00  0.5000000E+00  0.0000000E+00  0.5859375E-02
    1      -25.940746   1.000000
    2      -25.935871   1.000000
    3      -21.386165   1.000000
    4      -19.087069   1.000000
    5      -19.087065   1.000000
    6      -19.086855   1.000000
    7      -19.082300   1.000000
    8      -19.082298   1.000000
    9      -10.187186   1.000000
   10      -10.187184   1.000000
   11      -10.177375   1.000000
   12      -10.006481   1.000000
   13      -10.006479   1.000000
   14       -9.993568   1.000000
   15       -8.250780   1.000000
   16       -8.162935   1.000000
   17       -8.162924   1.000000
   18       -6.943710   1.000000
   19        0.971253   1.000000
   20        1.787983   0.999086
   21        1.788004   0.999084
   22        3.054147   0.000000
   23        3.543463   0.000000
   24        4.518750   0.000000
   25        5.130736   0.000000
 
  0.3750000E+00  0.2500000E+00  0.1250000E+00  0.4687500E-01
    1      -25.942758   1.000000
    2      -25.934188   1.000000
    3      -21.385348   1.000000
    4      -19.087137   1.000000
    5      -19.087104   1.000000
    6      -19.087000   1.000000
    7      -19.082354   1.000000
    8      -19.082327   1.000000
    9      -10.161497   1.000000
   10      -10.135614   1.000000
   11      -10.107083   1.000000
   12      -10.063014   1.000000
   13      -10.047450   1.000000
   14      -10.019077   1.000000
   15       -8.233358   1.000000
   16       -8.184710   1.000000
   17       -8.183882   1.000000
   18       -6.955917   1.000000
   19        0.877804   1.000000
   20        1.588521   1.000000
   21        1.670113   1.000000
   22        3.532586   0.000000
   23        3.889130   0.000000
   24        4.294545   0.000000
   25        4.735072   0.000000
 
  0.5000000E+00  0.2500000E+00  0.1250000E+00  0.9375000E-01
    1      -25.940701   1.000000
    2      -25.936083   1.000000
    3      -21.385741   1.000000
    4      -19.087114   1.000000
    5      -19.087062   1.000000
    6      -19.086934   1.000000
    7      -19.082347   1.000000
    8      -19.082323   1.000000
    9      -10.177330   1.000000
   10      -10.128949   1.000000
   11      -10.118354   1.000000
   12      -10.068277   1.000000
   13      -10.042454   1.000000
   14      -10.016247   1.000000
   15       -8.223913   1.000000
   16       -8.187663   1.000000
   17       -8.177135   1.000000
   18       -6.938328   1.000000
   19        0.911897   1.000000
   20        1.476919   1.000000
   21        1.569362   1.000000
   22        3.814430   0.000000
   23        4.161019   0.000000
   24        4.395994   0.000000
   25        4.798682   0.000000
 
 -0.3750000E+00  0.2500000E+00  0.1250000E+00  0.4687500E-01
    1      -25.938375   1.000000
    2      -25.938343   1.000000
    3      -21.385906   1.000000
    4      -19.087103   1.000000
    5      -19.087051   1.000000
    6      -19.086906   1.000000
    7      -19.082344   1.000000
    8      -19.082326   1.000000
    9      -10.183809   1.000000
   10      -10.134012   1.000000
   11      -10.105032   1.000000
   12      -10.085364   1.000000
   13      -10.028282   1.000000
   14      -10.022760   1.000000
   15       -8.214553   1.000000
   16       -8.193108   1.000000
   17       -8.174266   1.000000
   18       -6.932549   1.000000
   19        0.959783   1.000000
   20        1.379132   1.000000
   21        1.549067   1.000000
   22        4.023424   0.000000
   23        4.101483   0.000000
   24        4.614113   0.000000
   25        4.776080   0.000000
 
  0.5000000E+00  0.3750000E+00  0.1250000E+00  0.4687500E-01
    1      -25.940829   1.000000
    2      -25.935883   1.000000
    3      -21.385918   1.000000
    4      -19.087086   1.000000
    5      -19.087055   1.000000
    6      -19.086917   1.000000
    7      -19.082324   1.000000
    8      -19.082309   1.000000
    9      -10.193354   1.000000
   10      -10.154456   1.000000
   11      -10.143365   1.000000
   12      -10.038371   1.000000
   13      -10.015854   1.000000
   14      -10.008398   1.000000
   15       -8.237577   1.000000
   16       -8.177397   1.000000
   17       -8.169323   1.000000
   18       -6.940927   1.000000
   19        0.933786   1.000000
   20        1.607641   1.000000
   21        1.644135   1.000000
   22        3.552136   0.000000
   23        3.846796   0.000000
   24        4.443876   0.000000
   25        4.692262   0.000000
 
 -0.3750000E+00  0.3750000E+00  0.1250000E+00  0.9375000E-01
    1      -25.939260   1.000000
    2      -25.937388   1.000000
    3      -21.386080   1.000000
    4      -19.087073   1.000000
    5      -19.086996   1.000000
    6      -19.086919   1.000000
    7      -19.082329   1.000000
    8      -19.082304   1.000000
    9      -10.209049   1.000000
   10      -10.147120   1.000000
   11      -10.127719   1.000000
   12      -10.064748   1.000000
   13      -10.009975   1.000000
   14      -10.003321   1.000000
   15       -8.220138   1.000000
   16       -8.188486   1.000000
   17       -8.166941   1.000000
   18       -6.937350   1.000000
   19        1.096667   1.000000
   20        1.369375   1.000000
   21        1.594983   1.000000
   22        3.754715   0.000000
   23        3.925305   0.000000
   24        4.506278   0.000000
   25        4.698713   0.000000
 
 -0.2500000E+00  0.3750000E+00  0.1250000E+00  0.4687500E-01
    1      -25.939074   1.000000
    2      -25.937603   1.000000
    3      -21.386005   1.000000
    4      -19.087093   1.000000
    5      -19.086977   1.000000
    6      -19.086941   1.000000
    7      -19.082335   1.000000
    8      -19.082303   1.000000
    9      -10.203293   1.000000
   10      -10.138963   1.000000
   11      -10.097943   1.000000
   12      -10.095615   1.000000
   13      -10.022201   1.000000
   14      -10.002961   1.000000
   15       -8.206776   1.000000
   16       -8.200392   1.000000
   17       -8.170443   1.000000
   18       -6.936036   1.000000
   19        1.093800   1.000000
   20        1.324391   1.000000
   21        1.552286   1.000000
   22        3.903540   0.000000
   23        4.173031   0.000000
   24        4.247513   0.000000
   25        4.825433   0.000000
 
 -0.3750000E+00  0.5000000E+00  0.1250000E+00  0.2343750E-01
    1      -25.940032   1.000000
    2      -25.936586   1.000000
    3      -21.386160   1.000000
    4      -19.087062   1.000000
    5      -19.087029   1.000000
    6      -19.086884   1.000000
    7      -19.082322   1.000000
    8      -19.082293   1.000000
    9      -10.210384   1.000000
   10      -10.162118   1.000000
   11      -10.154211   1.000000
   12      -10.034487   1.000000
   13      -10.004670   1.000000
   14       -9.995378   1.000000
   15       -8.236530   1.000000
   16       -8.174550   1.000000
   17       -8.163329   1.000000
   18       -6.940817   1.000000
   19        1.045566   1.000000
   20        1.576367   1.000000
   21        1.655422   1.000000
   22        3.429184   0.000000
   23        3.660938   0.000000
   24        4.591984   0.000000
   25        4.839425   0.000000
 
 -0.2500000E+00  0.5000000E+00  0.2500000E+00  0.1171875E-01
    1      -25.938313   1.000000
    2      -25.938311   1.000000
    3      -21.386146   1.000000
    4      -19.087055   1.000000
    5      -19.086947   1.000000
    6      -19.086943   1.000000
    7      -19.082326   1.000000
    8      -19.082286   1.000000
    9      -10.221726   1.000000
   10      -10.142902   1.000000
   11      -10.099762   1.000000
   12      -10.099760   1.000000
   13      -10.001214   1.000000
   14       -9.998842   1.000000
   15       -8.204239   1.000000
   16       -8.204227   1.000000
   17       -8.163726   1.000000
   18       -6.937903   1.000000
   19        1.260441   1.000000
   20        1.260470   1.000000
   21        1.542997   1.000000
   22        3.747883   0.000000
   23        4.181101   0.000000
   24        4.181112   0.000000
   25        4.622467   0.000000
