 vasp.5.4.4.18Apr17-6-g9f103f2a35 (build Jun 23 2019 17:35:09) complex          
  
 executed on             LinuxIFC date 2020.01.15  15:39:21
 running on   28 total cores
 distrk:  each k-point on    7 cores,    4 groups
 distr:  one band on NCORES_PER_BAND=   7 cores,    1 groups


--------------------------------------------------------------------------------------------------------


 INCAR:
 POTCAR:    PAW_PBE Bi_d 06Sep2000                
 POTCAR:    PAW_PBE Cs_sv 08Apr2002               
 POTCAR:    PAW_PBE Rb_sv 06Sep2000               

 ----------------------------------------------------------------------------- 
|                                                                             |
|           W    W    AA    RRRRR   N    N  II  N    N   GGGG   !!!           |
|           W    W   A  A   R    R  NN   N  II  NN   N  G    G  !!!           |
|           W    W  A    A  R    R  N N  N  II  N N  N  G       !!!           |
|           W WW W  AAAAAA  RRRRR   N  N N  II  N  N N  G  GGG   !            |
|           WW  WW  A    A  R   R   N   NN  II  N   NN  G    G                |
|           W    W  A    A  R    R  N    N  II  N    N   GGGG   !!!           |
|                                                                             |
|      You have enabled k-point parallelism (KPAR>1).                         |
|      This developmental code was originally  written by Paul Kent at ORNL,  |
|      and carefully double checked in Vienna.                                |
|      GW as well as linear response parallelism added by Martijn Marsman     |
|      and Georg Kresse.                                                      |
|      Carefully verify results versus KPAR=1.                                |
|      Report problems to Paul Kent and Vienna.                               |
|                                                                             |
 ----------------------------------------------------------------------------- 

 POTCAR:    PAW_PBE Bi_d 06Sep2000                
   VRHFIN =Bi:                                                                  
   LEXCH  = PE                                                                  
   EATOM  =  1959.2045 eV,  143.9975 Ry                                         
                                                                                
   TITEL  = PAW_PBE Bi_d 06Sep2000                                              
   LULTRA =        F    use ultrasoft PP ?                                      
   IUNSCR =        1    unscreen: 0-lin 1-nonlin 2-no                           
   RPACOR =    2.200    partial core radius                                     
   POMASS =  208.980; ZVAL   =   15.000    mass and valenz                      
   RCORE  =    2.500    outmost cutoff radius                                   
   RWIGS  =    3.090; RWIGS  =    1.635    wigner-seitz radius (au A)           
   ENMAX  =  242.839; ENMIN  =  182.129 eV                                      
   ICORE  =        3    local potential                                         
   LCOR   =        T    correct aug charges                                     
   LPAW   =        T    paw PP                                                  
   EAUG   =  442.899                                                            
   DEXC   =    0.000                                                            
   RMAX   =    2.551    core radius for proj-oper                               
   RAUG   =    1.300    factor for augmentation sphere                          
   RDEP   =    2.650    radius for radial grids                                 
   RDEPT  =    2.039    core radius for aug-charge                              
                                                                                
   Atomic configuration                                                         
   16 entries                                                                   
     n  l   j            E        occ.                                          
     1  0  0.50    -90639.6581   2.0000                                         
     2  0  0.50    -16282.4666   2.0000                                         
     2  1  1.50    -13922.8286   6.0000                                         
     3  0  0.50     -3930.4763   2.0000                                         
     3  1  1.50     -3256.7013   6.0000                                         
     3  2  2.50     -2581.6168  10.0000                                         
     4  0  0.50      -902.2614   2.0000                                         
     4  1  1.50      -681.5915   6.0000                                         
     4  2  2.50      -429.8249  10.0000                                         
     4  3  3.50      -152.6004  14.0000                                         
     5  0  0.50      -157.7156   2.0000                                         
     5  1  1.50       -95.8054   6.0000                                         
     5  2  2.50       -27.0806  10.0000                                         
     6  0  0.50       -14.4732   2.0000                                         
     6  1  1.50        -4.5702   3.0000                                         
     5  3  2.50        -2.7212   0.0000                                         
   Description                                                                  
     l       E           TYP  RCUT    TYP  RCUT                                 
     2    -27.0805982     23  2.500                                             
     2     -1.3605826     23  2.500                                             
     0    -14.4732271     23  2.500                                             
     0      6.8029130     23  2.500                                             
     1     -4.5701651     23  2.500                                             
     1     13.6058260     23  2.500                                             
     3     -1.3605826      7  2.500                                             
  local pseudopotential read in
  partial core-charges read in
  partial kinetic energy density read in
  atomic valenz-charges read in
  non local Contribution for L=           2  read in
    real space projection operators read in
  non local Contribution for L=           2  read in
    real space projection operators read in
  non local Contribution for L=           0  read in
    real space projection operators read in
  non local Contribution for L=           0  read in
    real space projection operators read in
  non local Contribution for L=           1  read in
    real space projection operators read in
  non local Contribution for L=           1  read in
    real space projection operators read in
    PAW grid and wavefunctions read in
 
   number of l-projection  operators is LMAX  =           6
   number of lm-projection operators is LMMAX =          18
 
 POTCAR:    PAW_PBE Cs_sv 08Apr2002               
   VRHFIN =Cs: 5s5p6s                                                           
   LEXCH  = PE                                                                  
   EATOM  =   555.6835 eV,   40.8416 Ry                                         
                                                                                
   TITEL  = PAW_PBE Cs_sv 08Apr2002                                             
   LULTRA =        F    use ultrasoft PP ?                                      
   IUNSCR =        1    unscreen: 0-lin 1-nonlin 2-no                           
   RPACOR =    2.200    partial core radius                                     
   POMASS =  132.900; ZVAL   =    9.000    mass and valenz                      
   RCORE  =    2.500    outmost cutoff radius                                   
   RWIGS  =    2.500; RWIGS  =    1.323    wigner-seitz radius (au A)           
   ENMAX  =  220.318; ENMIN  =  165.238 eV                                      
   RCLOC  =    2.207    cutoff for local pot                                    
   LCOR   =        T    correct aug charges                                     
   LPAW   =        T    paw PP                                                  
   EAUG   =  407.933                                                            
   DEXC   =    0.000                                                            
   RMAX   =    2.554    core radius for proj-oper                               
   RAUG   =    1.300    factor for augmentation sphere                          
   RDEP   =    2.590    radius for radial grids                                 
   RDEPT  =    2.117    core radius for aug-charge                              
                                                                                
   Atomic configuration                                                         
   13 entries                                                                   
     n  l   j            E        occ.                                          
     1  0  0.50    -35790.1377   2.0000                                         
     2  0  0.50     -5613.6201   2.0000                                         
     2  1  1.50     -5035.0101   6.0000                                         
     3  0  0.50     -1167.0767   2.0000                                         
     3  1  1.50      -980.9754   6.0000                                         
     3  2  2.50      -708.0703  10.0000                                         
     4  0  0.50      -220.2386   2.0000                                         
     4  1  1.50      -160.7596   6.0000                                         
     4  2  2.50       -74.2354  10.0000                                         
     5  0  0.50       -26.7287   2.0000                                         
     6  0  0.50        -2.0862   1.0000                                         
     5  1  1.50       -13.5159   6.0000                                         
     5  2  2.50        -0.4136   0.0000                                         
   Description                                                                  
     l       E           TYP  RCUT    TYP  RCUT                                 
     0    -26.7287425     23  1.900                                             
     0     -2.0862306     23  1.900                                             
     1    -13.5158719     23  2.500                                             
     1     -2.7211652     23  2.500                                             
     2     -0.4136171     23  2.500                                             
  local pseudopotential read in
  partial core-charges read in
  partial kinetic energy density read in
  atomic valenz-charges read in
  non local Contribution for L=           0  read in
    real space projection operators read in
  non local Contribution for L=           0  read in
    real space projection operators read in
  non local Contribution for L=           1  read in
    real space projection operators read in
  non local Contribution for L=           1  read in
    real space projection operators read in
  non local Contribution for L=           2  read in
    real space projection operators read in
    PAW grid and wavefunctions read in
 
   number of l-projection  operators is LMAX  =           5
   number of lm-projection operators is LMMAX =          13
 
 POTCAR:    PAW_PBE Rb_sv 06Sep2000               
   VRHFIN =Rb: 4s4p5s                                                           
   LEXCH  = PE                                                                  
   EATOM  =   662.5034 eV,   48.6926 Ry                                         
                                                                                
   TITEL  = PAW_PBE Rb_sv 06Sep2000                                             
   LULTRA =        F    use ultrasoft PP ?                                      
   IUNSCR =        1    unscreen: 0-lin 1-nonlin 2-no                           
   RPACOR =    2.200    partial core radius                                     
   POMASS =   85.468; ZVAL   =    9.000    mass and valenz                      
   RCORE  =    2.500    outmost cutoff radius                                   
   RWIGS  =    4.570; RWIGS  =    2.418    wigner-seitz radius (au A)           
   ENMAX  =  220.112; ENMIN  =  165.084 eV                                      
   RCLOC  =    2.200    cutoff for local pot                                    
   LCOR   =        T    correct aug charges                                     
   LPAW   =        T    paw PP                                                  
   EAUG   =  423.861                                                            
   DEXC   =    0.000                                                            
   RMAX   =    2.546    core radius for proj-oper                               
   RAUG   =    1.300    factor for augmentation sphere                          
   RDEP   =    2.541    radius for radial grids                                 
   RDEPT  =    2.044    core radius for aug-charge                              
                                                                                
   Atomic configuration                                                         
   10 entries                                                                   
     n  l   j            E        occ.                                          
     1  0  0.50    -15031.5419   2.0000                                         
     2  0  0.50     -2007.8842   2.0000                                         
     2  1  1.50     -1779.8144   6.0000                                         
     3  0  0.50      -297.9619   2.0000                                         
     3  1  1.50      -224.8335   6.0000                                         
     3  2  2.50      -103.9539  10.0000                                         
     4  0  0.50       -31.8932   2.0000                                         
     5  0  0.50        -2.2327   0.9990                                         
     4  1  1.50       -15.9645   6.0000                                         
     4  2  1.50        -0.0020   0.0010                                         
   Description                                                                  
     l       E           TYP  RCUT    TYP  RCUT                                 
     0    -31.8932387     23  2.500                                             
     0     -2.2326525     23  2.500                                             
     1    -15.9644597     23  2.500                                             
     1    -17.3250423     23  2.500                                             
     2     -0.0020100     23  2.500                                             
  local pseudopotential read in
  partial core-charges read in
  partial kinetic energy density read in
  atomic valenz-charges read in
  non local Contribution for L=           0  read in
    real space projection operators read in
  non local Contribution for L=           0  read in
    real space projection operators read in
  non local Contribution for L=           1  read in
    real space projection operators read in
  non local Contribution for L=           1  read in
    real space projection operators read in
  non local Contribution for L=           2  read in
    real space projection operators read in
    PAW grid and wavefunctions read in
 
   number of l-projection  operators is LMAX  =           5
   number of lm-projection operators is LMMAX =          13
 
  PAW_PBE Bi_d 06Sep2000                :
 energy of atom  1       EATOM=-1959.2045
 kinetic energy error for atom=    0.0040 (will be added to EATOM!!)
  PAW_PBE Cs_sv 08Apr2002               :
 energy of atom  2       EATOM= -555.6835
 kinetic energy error for atom=    0.0016 (will be added to EATOM!!)
  PAW_PBE Rb_sv 06Sep2000               :
 energy of atom  3       EATOM= -662.5034
 kinetic energy error for atom=    0.0006 (will be added to EATOM!!)
 
 
 POSCAR: Cs Bi Rb                                
  positions in direct lattice
  velocities in cartesian coordinates
 exchange correlation table for  LEXCH =        8
   RHO(1)=    0.500       N(1)  =     2000
   RHO(2)=  100.500       N(2)  =     4000
 


--------------------------------------------------------------------------------------------------------


 ion  position               nearest neighbor table
   1  0.250  0.250  0.250-   4 3.99   3 3.99   3 3.99   3 3.99   4 3.99   4 3.99   4 3.99   3 3.99

   2  0.750  0.750  0.750-   4 3.99   4 3.99   4 3.99   3 3.99   3 3.99   3 3.99   3 3.99   4 3.99

   3  0.000  0.000  0.000-   1 3.99   1 3.99   1 3.99   2 3.99   2 3.99   2 3.99   2 3.99   1 3.99
                             4 4.61   4 4.61   4 4.61   4 4.61   4 4.61   4 4.61
   4  0.500  0.500  0.500-   1 3.99   2 3.99   2 3.99   2 3.99   1 3.99   1 3.99   1 3.99   2 3.99
                             3 4.61   3 4.61   3 4.61   3 4.61   3 4.61   3 4.61
 
  LATTYP: Found a face centered cubic cell.
 ALAT       =     9.2207203643
  
  Lattice vectors:
  
 A1 = (   0.0000000000,   4.6103601822,   4.6103601822)
 A2 = (   4.6103601822,   0.0000000000,   4.6103601822)
 A3 = (   4.6103601822,   4.6103601822,   0.0000000000)


Analysis of symmetry for initial positions (statically):
=====================================================================
 Subroutine PRICEL returns:
 Original cell was already a primitive cell.
 

 Routine SETGRP: Setting up the symmetry group for a 
 face centered cubic supercell.


 Subroutine GETGRP returns: Found 48 space group operations
 (whereof 24 operations were pure point group operations)
 out of a pool of 48 trial point group operations.


The static configuration has the point symmetry T_d .
 The point group associated with its full space group is O_h .


Analysis of symmetry for dynamics (positions and initial velocities):
=====================================================================
 Subroutine PRICEL returns:
 Original cell was already a primitive cell.
 

 Routine SETGRP: Setting up the symmetry group for a 
 face centered cubic supercell.


 Subroutine GETGRP returns: Found 48 space group operations
 (whereof 24 operations were pure point group operations)
 out of a pool of 48 trial point group operations.


The dynamic configuration has the point symmetry T_d .
 The point group associated with its full space group is O_h .


 Subroutine INISYM returns: Found 48 space group operations
 (whereof 24 operations are pure point group operations),
 and found     1 'primitive' translations

 
 
 KPOINTS: KPOINTS                                 

Automatic generation of k-mesh.
Space group operators:
 irot       det(A)        alpha          n_x          n_y          n_z        tau_x        tau_y        tau_z
    1     1.000000     0.000000     1.000000     0.000000     0.000000     0.000000     0.000000     0.000000
    2     1.000000   120.000000    -0.577350    -0.577350    -0.577350     0.000000     0.000000     0.000000
    3     1.000000   120.000000     0.577350     0.577350     0.577350     0.000000     0.000000     0.000000
    4    -1.000000    90.000000     0.000000     0.000000    -1.000000     0.000000     0.000000     0.000000
    5    -1.000000   180.000000     0.000000     0.707107     0.707107     0.000000     0.000000     0.000000
    6    -1.000000    90.000000     0.000000     1.000000     0.000000     0.000000     0.000000     0.000000
    7     1.000000   180.000000     0.000000     0.000000     1.000000     0.000000     0.000000     0.000000
    8     1.000000   120.000000    -0.577350     0.577350     0.577350     0.000000     0.000000     0.000000
    9     1.000000   120.000000    -0.577350     0.577350    -0.577350     0.000000     0.000000     0.000000
   10    -1.000000    90.000000     0.000000     0.000000     1.000000     0.000000     0.000000     0.000000
   11    -1.000000    90.000000    -1.000000     0.000000     0.000000     0.000000     0.000000     0.000000
   12    -1.000000   180.000000     0.707107     0.000000     0.707107     0.000000     0.000000     0.000000
   13     1.000000   120.000000     0.577350    -0.577350     0.577350     0.000000     0.000000     0.000000
   14     1.000000   120.000000    -0.577350    -0.577350     0.577350     0.000000     0.000000     0.000000
   15     1.000000   180.000000     1.000000     0.000000     0.000000     0.000000     0.000000     0.000000
   16    -1.000000    90.000000     0.000000    -1.000000     0.000000     0.000000     0.000000     0.000000
   17    -1.000000   180.000000     0.707107     0.707107     0.000000     0.000000     0.000000     0.000000
   18    -1.000000    90.000000     1.000000     0.000000     0.000000     0.000000     0.000000     0.000000
   19     1.000000   120.000000     0.577350    -0.577350    -0.577350     0.000000     0.000000     0.000000
   20     1.000000   180.000000     0.000000     1.000000     0.000000     0.000000     0.000000     0.000000
   21     1.000000   120.000000     0.577350     0.577350    -0.577350     0.000000     0.000000     0.000000
   22    -1.000000   180.000000     0.000000    -0.707107     0.707107     0.000000     0.000000     0.000000
   23    -1.000000   180.000000     0.707107    -0.707107     0.000000     0.000000     0.000000     0.000000
   24    -1.000000   180.000000     0.707107     0.000000    -0.707107     0.000000     0.000000     0.000000
   25    -1.000000     0.000000     1.000000     0.000000     0.000000     0.500001     0.500001     0.500001
   26    -1.000000   120.000000    -0.577350    -0.577350    -0.577350     0.500001     0.500001     0.500001
   27    -1.000000   120.000000     0.577350     0.577350     0.577350     0.500001     0.500001     0.500001
   28     1.000000    90.000000     0.000000     0.000000    -1.000000     0.499999     0.500001     0.500001
   29     1.000000   180.000000     0.000000     0.707107     0.707107     0.499999     0.500001     0.500001
   30     1.000000    90.000000     0.000000     1.000000     0.000000     0.499999     0.500001     0.500001
   31    -1.000000   180.000000     0.000000     0.000000     1.000000     0.500001     0.500001     0.499999
   32    -1.000000   120.000000    -0.577350     0.577350     0.577350     0.500001     0.500001     0.499999
   33    -1.000000   120.000000    -0.577350     0.577350    -0.577350     0.500001     0.500001     0.499999
   34     1.000000    90.000000     0.000000     0.000000     1.000000     0.500001     0.499999     0.500001
   35     1.000000    90.000000    -1.000000     0.000000     0.000000     0.500001     0.499999     0.500001
   36     1.000000   180.000000     0.707107     0.000000     0.707107     0.500001     0.499999     0.500001
   37    -1.000000   120.000000     0.577350    -0.577350     0.577350     0.499999     0.500001     0.500001
   38    -1.000000   120.000000    -0.577350    -0.577350     0.577350     0.499999     0.500001     0.500001
   39    -1.000000   180.000000     1.000000     0.000000     0.000000     0.499999     0.500001     0.500001
   40     1.000000    90.000000     0.000000    -1.000000     0.000000     0.500001     0.500001     0.499999
   41     1.000000   180.000000     0.707107     0.707107     0.000000     0.500001     0.500001     0.499999
   42     1.000000    90.000000     1.000000     0.000000     0.000000     0.500001     0.500001     0.499999
   43    -1.000000   120.000000     0.577350    -0.577350    -0.577350     0.500001     0.499999     0.500001
   44    -1.000000   180.000000     0.000000     1.000000     0.000000     0.500001     0.499999     0.500001
   45    -1.000000   120.000000     0.577350     0.577350    -0.577350     0.500001     0.499999     0.500001
   46     1.000000   180.000000     0.000000    -0.707107     0.707107     0.500001     0.500001     0.500001
   47     1.000000   180.000000     0.707107    -0.707107     0.000000     0.500001     0.500001     0.500001
   48     1.000000   180.000000     0.707107     0.000000    -0.707107     0.500001     0.500001     0.500001
 
 Subroutine IBZKPT returns following result:
 ===========================================
 
 Found     29 irreducible k-points:
 
 Following reciprocal coordinates:
            Coordinates               Weight
  0.000000  0.000000  0.000000      1.000000
  0.125000  0.000000  0.000000      8.000000
  0.250000  0.000000  0.000000      8.000000
  0.375000  0.000000  0.000000      8.000000
  0.500000  0.000000  0.000000      4.000000
  0.125000  0.125000  0.000000      6.000000
  0.250000  0.125000  0.000000     24.000000
  0.375000  0.125000  0.000000     24.000000
  0.500000  0.125000  0.000000     24.000000
 -0.375000  0.125000  0.000000     24.000000
 -0.250000  0.125000  0.000000     24.000000
 -0.125000  0.125000  0.000000     12.000000
  0.250000  0.250000  0.000000      6.000000
  0.375000  0.250000  0.000000     24.000000
  0.500000  0.250000  0.000000     24.000000
 -0.375000  0.250000  0.000000     24.000000
 -0.250000  0.250000  0.000000     12.000000
  0.375000  0.375000  0.000000      6.000000
  0.500000  0.375000  0.000000     24.000000
 -0.375000  0.375000  0.000000     12.000000
  0.500000  0.500000  0.000000      3.000000
  0.375000  0.250000  0.125000     24.000000
  0.500000  0.250000  0.125000     48.000000
 -0.375000  0.250000  0.125000     24.000000
  0.500000  0.375000  0.125000     24.000000
 -0.375000  0.375000  0.125000     48.000000
 -0.250000  0.375000  0.125000     24.000000
 -0.375000  0.500000  0.125000     12.000000
 -0.250000  0.500000  0.250000      6.000000
 
 Following cartesian coordinates:
            Coordinates               Weight
  0.000000  0.000000  0.000000      1.000000
 -0.013556  0.013556  0.013556      8.000000
 -0.027113  0.027113  0.027113      8.000000
 -0.040669  0.040669  0.040669      8.000000
 -0.054226  0.054226  0.054226      4.000000
  0.000000  0.000000  0.027113      6.000000
 -0.013556  0.013556  0.040669     24.000000
 -0.027113  0.027113  0.054226     24.000000
 -0.040669  0.040669  0.067782     24.000000
  0.054226 -0.054226 -0.027113     24.000000
  0.040669 -0.040669 -0.013556     24.000000
  0.027113 -0.027113  0.000000     12.000000
  0.000000  0.000000  0.054226      6.000000
 -0.013556  0.013556  0.067782     24.000000
 -0.027113  0.027113  0.081339     24.000000
  0.067782 -0.067782 -0.013556     24.000000
  0.054226 -0.054226  0.000000     12.000000
  0.000000  0.000000  0.081339      6.000000
 -0.013556  0.013556  0.094895     24.000000
  0.081339 -0.081339  0.000000     12.000000
  0.000000  0.000000  0.108451      3.000000
 -0.000000  0.027113  0.054226     24.000000
 -0.013556  0.040669  0.067782     48.000000
  0.081339 -0.054226 -0.027113     24.000000
 -0.000000  0.027113  0.081339     24.000000
  0.094895 -0.067782 -0.013556     48.000000
  0.081339 -0.054226 -0.000000     24.000000
  0.108451 -0.081339  0.000000     12.000000
  0.108451 -0.054226  0.000000      6.000000
 


--------------------------------------------------------------------------------------------------------




 Dimension of arrays:
   k-points           NKPTS =     29   k-points in BZ     NKDIM =     29   number of bands    NBANDS=     25
   number of dos      NEDOS =    301   number of ions     NIONS =      4
   non local maximal  LDIM  =      6   non local SUM 2l+1 LMDIM =     18
   total plane-waves  NPLWV = 110592
   max r-space proj   IRMAX =      1   max aug-charges    IRDMAX=  28408
   dimension x,y,z NGX =    48 NGY =   48 NGZ =   48
   dimension x,y,z NGXF=    96 NGYF=   96 NGZF=   96
   support grid    NGXF=    96 NGYF=   96 NGZF=   96
   ions per type =               1   1   2
   NGX,Y,Z   is equivalent  to a cutoff of  12.24, 12.24, 12.24 a.u.
   NGXF,Y,Z  is equivalent  to a cutoff of  24.48, 24.48, 24.48 a.u.

 SYSTEM =  unknown system                          
 POSCAR =  Cs Bi Rb                                

 Startparameter for this run:
   NWRITE =      2    write-flag & timer
   PREC   = acc       normal or accurate (medium, high low for compatibility)
   ISTART =      0    job   : 0-new  1-cont  2-samecut
   ICHARG =      2    charge: 1-file 2-atom 10-const
   ISPIN  =      1    spin polarized calculation?
   LNONCOLLINEAR =      F non collinear calculations
   LSORBIT =      F    spin-orbit coupling
   INIWAV =      1    electr: 0-lowe 1-rand  2-diag
   LASPH  =      F    aspherical Exc in radial PAW
   METAGGA=      F    non-selfconsistent MetaGGA calc.

 Electronic Relaxation 1
   ENCUT  =  520.0 eV  38.22 Ry    6.18 a.u.  12.12 12.12 12.12*2*pi/ulx,y,z
   ENINI  =  520.0     initial cutoff
   ENAUG  =  442.9 eV  augmentation charge cutoff
   NELM   =    150;   NELMIN=  5; NELMDL= -5     # of ELM steps 
   EDIFF  = 0.1E-07   stopping-criterion for ELM
   LREAL  =      F    real-space projection
   NLSPLINE    = F    spline interpolate recip. space projectors
   LCOMPAT=      F    compatible to vasp.4.4
   GGA_COMPAT  = T    GGA compatible to vasp.4.4-vasp.4.6
   LMAXPAW     = -100 max onsite density
   LMAXMIX     =    2 max onsite mixed and CHGCAR
   VOSKOWN=      0    Vosko Wilk Nusair interpolation
   ROPT   =    0.00000   0.00000   0.00000
 Ionic relaxation
   EDIFFG = 0.1E-06   stopping-criterion for IOM
   NSW    =      0    number of steps for IOM
   NBLOCK =      1;   KBLOCK =      1    inner block; outer block 
   IBRION =     -1    ionic relax: 0-MD 1-quasi-New 2-CG
   NFREE  =      0    steps in history (QN), initial steepest desc. (CG)
   ISIF   =      3    stress and relaxation
   IWAVPR =     10    prediction:  0-non 1-charg 2-wave 3-comb
   ISYM   =      2    0-nonsym 1-usesym 2-fastsym
   LCORR  =      T    Harris-Foulkes like correction to forces

   POTIM  = 0.5000    time-step for ionic-motion
   TEIN   =    0.0    initial temperature
   TEBEG  =    0.0;   TEEND  =   0.0 temperature during run
   SMASS  =  -3.00    Nose mass-parameter (am)
   estimated Nose-frequenzy (Omega)   =  0.10E-29 period in steps =****** mass=  -0.971E-27a.u.
   SCALEE = 1.0000    scale energy and forces
   NPACO  =    256;   APACO  = 16.0  distance and # of slots for P.C.
   PSTRESS=    0.0 pullay stress

  Mass of Ions in am
   POMASS = 208.98132.90 85.47
  Ionic Valenz
   ZVAL   =  15.00  9.00  9.00
  Atomic Wigner-Seitz radii
   RWIGS  =  -1.00 -1.00 -1.00
  virtual crystal weights 
   VCA    =   1.00  1.00  1.00
   NELECT =      42.0000    total number of electrons
   NUPDOWN=      -1.0000    fix difference up-down

 DOS related values:
   EMIN   =  10.00;   EMAX   =-10.00  energy-range for DOS
   EFERMI =   0.00
   ISMEAR =     0;   SIGMA  =   0.05  broadening in eV -4-tet -1-fermi 0-gaus

 Electronic relaxation 2 (details)
   IALGO  =     38    algorithm
   LDIAG  =      T    sub-space diagonalisation (order eigenvalues)
   LSUBROT=      F    optimize rotation matrix (better conditioning)
   TURBO    =      0    0=normal 1=particle mesh
   IRESTART =      0    0=no restart 2=restart with 2 vectors
   NREBOOT  =      0    no. of reboots
   NMIN     =      0    reboot dimension
   EREF     =   0.00    reference energy to select bands
   IMIX   =      4    mixing-type and parameters
     AMIX     =   0.40;   BMIX     =  1.00
     AMIX_MAG =   1.60;   BMIX_MAG =  1.00
     AMIN     =   0.10
     WC   =   100.;   INIMIX=   1;  MIXPRE=   1;  MAXMIX= -45

 Intra band minimization:
   WEIMIN = 0.0000     energy-eigenvalue tresh-hold
   EBREAK =  0.10E-09  absolut break condition
   DEPER  =   0.30     relativ break condition  

   TIME   =   0.40     timestep for ELM

  volume/ion in A,a.u.               =      49.00       330.65
  Fermi-wavevector in a.u.,A,eV,Ry     =   0.979670  1.851308 13.058232  0.959753
  Thomas-Fermi vector in A             =   2.110541
 
 Write flags
   LWAVE        =      F    write WAVECAR
   LDOWNSAMPLE  =      F    k-point downsampling of WAVECAR
   LCHARG       =      F    write CHGCAR
   LVTOT        =      F    write LOCPOT, total local potential
   LVHAR        =      F    write LOCPOT, Hartree potential only
   LELF         =      F    write electronic localiz. function (ELF)
   LORBIT       =      0    0 simple, 1 ext, 2 COOP (PROOUT), +10 PAW based schemes


 Dipole corrections
   LMONO  =      F    monopole corrections only (constant potential shift)
   LDIPOL =      F    correct potential (dipole corrections)
   IDIPOL =      0    1-x, 2-y, 3-z, 4-all directions 
   EPSILON=  1.0000000 bulk dielectric constant

 Exchange correlation treatment:
   GGA     =    PE    GGA type
   LEXCH   =     8    internal setting for exchange type
   VOSKOWN=      0    Vosko Wilk Nusair interpolation
   LHFCALC =     F    Hartree Fock is set to
   LHFONE  =     F    Hartree Fock one center treatment
   AEXX    =    0.0000 exact exchange contribution

 Linear response parameters
   LEPSILON=     F    determine dielectric tensor
   LRPA    =     F    only Hartree local field effects (RPA)
   LNABLA  =     F    use nabla operator in PAW spheres
   LVEL    =     F    velocity operator in full k-point grid
   LINTERFAST=   F  fast interpolation
   KINTER  =     0    interpolate to denser k-point grid
   CSHIFT  =0.1000    complex shift for real part using Kramers Kronig
   OMEGAMAX=  -1.0    maximum frequency
   DEG_THRESHOLD= 0.2000000E-02 threshold for treating states as degnerate
   RTIME   =   -0.100 relaxation time in fs
  (WPLASMAI=    0.000 imaginary part of plasma frequency in eV, 0.658/RTIME)
   DFIELD  = 0.0000000 0.0000000 0.0000000 field for delta impulse in time
 
 Orbital magnetization related:
   ORBITALMAG=     F  switch on orbital magnetization
   LCHIMAG   =     F  perturbation theory with respect to B field
   DQ        =  0.001000  dq finite difference perturbation B field
   LLRAUG    =     F  two centre corrections for induced B field



--------------------------------------------------------------------------------------------------------


 Static calculation
 charge density and potential will be updated during run
 non-spin polarized calculation
 Variant of blocked Davidson
 Davidson routine will perform the subspace rotation
 perform sub-space diagonalisation
    after iterative eigenvector-optimisation
 modified Broyden-mixing scheme, WC =      100.0
 initial mixing is a Kerker type mixing with AMIX =  0.4000 and BMIX =      1.0000
 Hartree-type preconditioning will be used
 using additional bands            4
 reciprocal scheme for non local part
 use partial core corrections
 calculate Harris-corrections to forces 
   (improved forces if not selfconsistent)
 use gradient corrections 
 use of overlap-Matrix (Vanderbilt PP)
 Gauss-broadening in eV      SIGMA  =   0.05


--------------------------------------------------------------------------------------------------------


  energy-cutoff  :      520.00
  volume of cell :      195.99
      direct lattice vectors                 reciprocal lattice vectors
     0.000000000  4.610360182  4.610360182    -0.108451396  0.108451396  0.108451396
     4.610360182  0.000000000  4.610360182     0.108451396 -0.108451396  0.108451396
     4.610360182  4.610360182  0.000000000     0.108451396  0.108451396 -0.108451396

  length of vectors
     6.520033897  6.520033897  6.520033897     0.187843329  0.187843329  0.187843329


 
 k-points in units of 2pi/SCALE and weight: KPOINTS                                 
   0.00000000  0.00000000  0.00000000       0.002
  -0.01355642  0.01355642  0.01355642       0.016
  -0.02711285  0.02711285  0.02711285       0.016
  -0.04066927  0.04066927  0.04066927       0.016
  -0.05422570  0.05422570  0.05422570       0.008
   0.00000000  0.00000000  0.02711285       0.012
  -0.01355642  0.01355642  0.04066927       0.047
  -0.02711285  0.02711285  0.05422570       0.047
  -0.04066927  0.04066927  0.06778212       0.047
   0.05422570 -0.05422570 -0.02711285       0.047
   0.04066927 -0.04066927 -0.01355642       0.047
   0.02711285 -0.02711285  0.00000000       0.023
   0.00000000  0.00000000  0.05422570       0.012
  -0.01355642  0.01355642  0.06778212       0.047
  -0.02711285  0.02711285  0.08133855       0.047
   0.06778212 -0.06778212 -0.01355642       0.047
   0.05422570 -0.05422570  0.00000000       0.023
   0.00000000  0.00000000  0.08133855       0.012
  -0.01355642  0.01355642  0.09489497       0.047
   0.08133855 -0.08133855  0.00000000       0.023
   0.00000000  0.00000000  0.10845140       0.006
  -0.00000000  0.02711285  0.05422570       0.047
  -0.01355642  0.04066927  0.06778212       0.094
   0.08133855 -0.05422570 -0.02711285       0.047
  -0.00000000  0.02711285  0.08133855       0.047
   0.09489497 -0.06778212 -0.01355642       0.094
   0.08133855 -0.05422570 -0.00000000       0.047
   0.10845140 -0.08133855  0.00000000       0.023
   0.10845140 -0.05422570  0.00000000       0.012
 
 k-points in reciprocal lattice and weights: KPOINTS                                 
   0.00000000  0.00000000  0.00000000       0.002
   0.12500000  0.00000000  0.00000000       0.016
   0.25000000  0.00000000  0.00000000       0.016
   0.37500000  0.00000000  0.00000000       0.016
   0.50000000  0.00000000  0.00000000       0.008
   0.12500000  0.12500000  0.00000000       0.012
   0.25000000  0.12500000  0.00000000       0.047
   0.37500000  0.12500000  0.00000000       0.047
   0.50000000  0.12500000  0.00000000       0.047
  -0.37500000  0.12500000  0.00000000       0.047
  -0.25000000  0.12500000  0.00000000       0.047
  -0.12500000  0.12500000  0.00000000       0.023
   0.25000000  0.25000000  0.00000000       0.012
   0.37500000  0.25000000  0.00000000       0.047
   0.50000000  0.25000000  0.00000000       0.047
  -0.37500000  0.25000000  0.00000000       0.047
  -0.25000000  0.25000000  0.00000000       0.023
   0.37500000  0.37500000  0.00000000       0.012
   0.50000000  0.37500000  0.00000000       0.047
  -0.37500000  0.37500000  0.00000000       0.023
   0.50000000  0.50000000  0.00000000       0.006
   0.37500000  0.25000000  0.12500000       0.047
   0.50000000  0.25000000  0.12500000       0.094
  -0.37500000  0.25000000  0.12500000       0.047
   0.50000000  0.37500000  0.12500000       0.047
  -0.37500000  0.37500000  0.12500000       0.094
  -0.25000000  0.37500000  0.12500000       0.047
  -0.37500000  0.50000000  0.12500000       0.023
  -0.25000000  0.50000000  0.25000000       0.012
 
 position of ions in fractional coordinates (direct lattice) 
   0.25000033  0.25000033  0.25000033
   0.74999989  0.74999989  0.74999989
   0.00000000  0.00000000  0.00000000
   0.49999956  0.49999956  0.49999956
 
 position of ions in cartesian coordinates  (Angst):
   2.30518312  2.30518312  2.30518312
   6.91553926  6.91553926  6.91553926
   0.00000000  0.00000000  0.00000000
   4.61035615  4.61035615  4.61035615
 


--------------------------------------------------------------------------------------------------------


 k-point  1 :   0.0000 0.0000 0.0000  plane waves:    5209
 k-point  2 :   0.1250 0.0000 0.0000  plane waves:    5234
 k-point  3 :   0.2500 0.0000 0.0000  plane waves:    5270
 k-point  4 :   0.3750 0.0000 0.0000  plane waves:    5291
 k-point  5 :   0.5000 0.0000 0.0000  plane waves:    5252
 k-point  6 :   0.1250 0.1250 0.0000  plane waves:    5249
 k-point  7 :   0.2500 0.1250 0.0000  plane waves:    5266
 k-point  8 :   0.3750 0.1250 0.0000  plane waves:    5278
 k-point  9 :   0.5000 0.1250 0.0000  plane waves:    5280
 k-point 10 :  -0.3750 0.1250 0.0000  plane waves:    5285
 k-point 11 :  -0.2500 0.1250 0.0000  plane waves:    5277
 k-point 12 :  -0.1250 0.1250 0.0000  plane waves:    5250
 k-point 13 :   0.2500 0.2500 0.0000  plane waves:    5297
 k-point 14 :   0.3750 0.2500 0.0000  plane waves:    5277
 k-point 15 :   0.5000 0.2500 0.0000  plane waves:    5274
 k-point 16 :  -0.3750 0.2500 0.0000  plane waves:    5277
 k-point 17 :  -0.2500 0.2500 0.0000  plane waves:    5288
 k-point 18 :   0.3750 0.3750 0.0000  plane waves:    5273
 k-point 19 :   0.5000 0.3750 0.0000  plane waves:    5283
 k-point 20 :  -0.3750 0.3750 0.0000  plane waves:    5274
 k-point 21 :   0.5000 0.5000 0.0000  plane waves:    5290
 k-point 22 :   0.3750 0.2500 0.1250  plane waves:    5269
 k-point 23 :   0.5000 0.2500 0.1250  plane waves:    5276
 k-point 24 :  -0.3750 0.2500 0.1250  plane waves:    5286
 k-point 25 :   0.5000 0.3750 0.1250  plane waves:    5279
 k-point 26 :  -0.3750 0.3750 0.1250  plane waves:    5278
 k-point 27 :  -0.2500 0.3750 0.1250  plane waves:    5272
 k-point 28 :  -0.3750 0.5000 0.1250  plane waves:    5292
 k-point 29 :  -0.2500 0.5000 0.2500  plane waves:    5268

 maximum and minimum number of plane-waves per node :       772      730

 maximum number of plane-waves:      5297
 maximum index in each direction: 
   IXMAX=   12   IYMAX=   12   IZMAX=   12
   IXMIN=  -12   IYMIN=  -12   IZMIN=  -12


 parallel 3D FFT for wavefunctions:
    minimum data exchange during FFTs selected (reduces bandwidth)
 parallel 3D FFT for charge:
    minimum data exchange during FFTs selected (reduces bandwidth)


 total amount of memory used by VASP MPI-rank0    62660. kBytes
=======================================================================

   base      :      30000. kBytes
   nonl-proj :       9645. kBytes
   fftplans  :       4869. kBytes
   grid      :       9037. kBytes
   one-center:         15. kBytes
   wavefun   :       9094. kBytes
 
     INWAV:  cpu time    0.0000: real time    0.0000
 Broyden mixing: mesh for mixing (old mesh)
   NGX = 25   NGY = 25   NGZ = 25
  (NGX  = 96   NGY  = 96   NGZ  = 96)
  gives a total of  15625 points

 initial charge density was supplied:
 charge density of overlapping atoms calculated
 number of electron      42.0000000 magnetization 
 keeping initial charge density in first step


--------------------------------------------------------------------------------------------------------


 Maximum index for augmentation-charges         3944 (set IRDMAX)


--------------------------------------------------------------------------------------------------------


 First call to EWALD:  gamma=   0.305
 Maximum number of real-space cells 3x 3x 3
 Maximum number of reciprocal cells 3x 3x 3

    FEWALD:  cpu time    0.0016: real time    0.0016


--------------------------------------- Iteration      1(   1)  ---------------------------------------


    POTLOK:  cpu time    0.0780: real time    0.0811
    SETDIJ:  cpu time    0.0085: real time    0.0085
     EDDAV:  cpu time    0.4958: real time    0.4961
       DOS:  cpu time    0.0006: real time    0.0006
    --------------------------------------------
      LOOP:  cpu time    0.5830: real time    0.5864

 eigenvalue-minimisations  :  1466
 total energy-change (2. order) : 0.3725721E+03  (-0.1904902E+04)
 number of electron      42.0000000 magnetization 
 augmentation part       42.0000000 magnetization 

 Free energy of the ion-electron system (eV)
  ---------------------------------------------------
  alpha Z        PSCENC =       141.71061232
  Ewald energy   TEWEN  =     -2584.07013028
  -Hartree energ DENC   =     -1049.24223106
  -exchange      EXHF   =         0.00000000
  -V(xc)+E(xc)   XCENC  =       116.89400135
  PAW double counting   =      3110.29076924    -3064.67432099
  entropy T*S    EENTRO =        -0.00301226
  eigenvalues    EBANDS =      -138.22160361
  atomic energy  EATOM  =      3839.88806440
  Solvation  Ediel_sol  =         0.00000000
  ---------------------------------------------------
  free energy    TOTEN  =       372.57214911 eV

  energy without entropy =      372.57516138  energy(sigma->0) =      372.57365524


--------------------------------------------------------------------------------------------------------




--------------------------------------- Iteration      1(   2)  ---------------------------------------


     EDDAV:  cpu time    0.5468: real time    0.5493
       DOS:  cpu time    0.0006: real time    0.0006
    --------------------------------------------
      LOOP:  cpu time    0.5473: real time    0.5499

 eigenvalue-minimisations  :  1799
 total energy-change (2. order) :-0.3473669E+03  (-0.3430928E+03)
 number of electron      42.0000000 magnetization 
 augmentation part       42.0000000 magnetization 

 Free energy of the ion-electron system (eV)
  ---------------------------------------------------
  alpha Z        PSCENC =       141.71061232
  Ewald energy   TEWEN  =     -2584.07013028
  -Hartree energ DENC   =     -1049.24223106
  -exchange      EXHF   =         0.00000000
  -V(xc)+E(xc)   XCENC  =       116.89400135
  PAW double counting   =      3110.29076924    -3064.67432099
  entropy T*S    EENTRO =        -0.00166519
  eigenvalues    EBANDS =      -485.58985491
  atomic energy  EATOM  =      3839.88806440
  Solvation  Ediel_sol  =         0.00000000
  ---------------------------------------------------
  free energy    TOTEN  =        25.20524488 eV

  energy without entropy =       25.20691007  energy(sigma->0) =       25.20607748


--------------------------------------------------------------------------------------------------------




--------------------------------------- Iteration      1(   3)  ---------------------------------------


     EDDAV:  cpu time    0.5722: real time    0.5725
       DOS:  cpu time    0.0004: real time    0.0004
    --------------------------------------------
      LOOP:  cpu time    0.5725: real time    0.5729

 eigenvalue-minimisations  :  1862
 total energy-change (2. order) :-0.3295557E+02  (-0.3270475E+02)
 number of electron      42.0000000 magnetization 
 augmentation part       42.0000000 magnetization 

 Free energy of the ion-electron system (eV)
  ---------------------------------------------------
  alpha Z        PSCENC =       141.71061232
  Ewald energy   TEWEN  =     -2584.07013028
  -Hartree energ DENC   =     -1049.24223106
  -exchange      EXHF   =         0.00000000
  -V(xc)+E(xc)   XCENC  =       116.89400135
  PAW double counting   =      3110.29076924    -3064.67432099
  entropy T*S    EENTRO =        -0.00000000
  eigenvalues    EBANDS =      -518.54709025
  atomic energy  EATOM  =      3839.88806440
  Solvation  Ediel_sol  =         0.00000000
  ---------------------------------------------------
  free energy    TOTEN  =        -7.75032527 eV

  energy without entropy =       -7.75032527  energy(sigma->0) =       -7.75032527


--------------------------------------------------------------------------------------------------------




--------------------------------------- Iteration      1(   4)  ---------------------------------------


     EDDAV:  cpu time    0.6744: real time    0.6763
       DOS:  cpu time    0.0003: real time    0.0003
    --------------------------------------------
      LOOP:  cpu time    0.6747: real time    0.6766

 eigenvalue-minimisations  :  2345
 total energy-change (2. order) :-0.1174532E+01  (-0.1173196E+01)
 number of electron      42.0000000 magnetization 
 augmentation part       42.0000000 magnetization 

 Free energy of the ion-electron system (eV)
  ---------------------------------------------------
  alpha Z        PSCENC =       141.71061232
  Ewald energy   TEWEN  =     -2584.07013028
  -Hartree energ DENC   =     -1049.24223106
  -exchange      EXHF   =         0.00000000
  -V(xc)+E(xc)   XCENC  =       116.89400135
  PAW double counting   =      3110.29076924    -3064.67432099
  entropy T*S    EENTRO =        -0.00000000
  eigenvalues    EBANDS =      -519.72162257
  atomic energy  EATOM  =      3839.88806440
  Solvation  Ediel_sol  =         0.00000000
  ---------------------------------------------------
  free energy    TOTEN  =        -8.92485758 eV

  energy without entropy =       -8.92485758  energy(sigma->0) =       -8.92485758


--------------------------------------------------------------------------------------------------------




--------------------------------------- Iteration      1(   5)  ---------------------------------------


     EDDAV:  cpu time    0.6187: real time    0.6192
       DOS:  cpu time    0.0003: real time    0.0003
    CHARGE:  cpu time    0.0605: real time    0.0605
    MIXING:  cpu time    0.0045: real time    0.0045
    --------------------------------------------
      LOOP:  cpu time    0.6841: real time    0.6846

 eigenvalue-minimisations  :  2121
 total energy-change (2. order) :-0.4370724E-01  (-0.4370112E-01)
 number of electron      41.9999995 magnetization 
 augmentation part        3.4884655 magnetization 

 Broyden mixing:
  rms(total) = 0.39700E+00    rms(broyden)= 0.39700E+00
  rms(prec ) = 0.10811E+01
  weight for this iteration     100.00

 Free energy of the ion-electron system (eV)
  ---------------------------------------------------
  alpha Z        PSCENC =       141.71061232
  Ewald energy   TEWEN  =     -2584.07013028
  -Hartree energ DENC   =     -1049.24223106
  -exchange      EXHF   =         0.00000000
  -V(xc)+E(xc)   XCENC  =       116.89400135
  PAW double counting   =      3110.29076924    -3064.67432099
  entropy T*S    EENTRO =        -0.00000000
  eigenvalues    EBANDS =      -519.76532981
  atomic energy  EATOM  =      3839.88806440
  Solvation  Ediel_sol  =         0.00000000
  ---------------------------------------------------
  free energy    TOTEN  =        -8.96856482 eV

  energy without entropy =       -8.96856482  energy(sigma->0) =       -8.96856482


--------------------------------------------------------------------------------------------------------




--------------------------------------- Iteration      1(   6)  ---------------------------------------


    POTLOK:  cpu time    0.0843: real time    0.0846
    SETDIJ:  cpu time    0.0050: real time    0.0050
     EDDAV:  cpu time    0.5338: real time    0.5342
       DOS:  cpu time    0.0003: real time    0.0003
    CHARGE:  cpu time    0.0601: real time    0.0601
    MIXING:  cpu time    0.0050: real time    0.0050
    --------------------------------------------
      LOOP:  cpu time    0.6885: real time    0.6892

 eigenvalue-minimisations  :  1722
 total energy-change (2. order) : 0.8959263E+00  (-0.2250441E+00)
 number of electron      41.9999995 magnetization 
 augmentation part        3.4902529 magnetization 

 Broyden mixing:
  rms(total) = 0.26048E+00    rms(broyden)= 0.26048E+00
  rms(prec ) = 0.51032E+00
  weight for this iteration     100.00

 eigenvalues of (default mixing * dielectric matrix)
  average eigenvalue GAMMA=   1.6863
  1.6863

 Free energy of the ion-electron system (eV)
  ---------------------------------------------------
  alpha Z        PSCENC =       141.71061232
  Ewald energy   TEWEN  =     -2584.07013028
  -Hartree energ DENC   =     -1054.34530831
  -exchange      EXHF   =         0.00000000
  -V(xc)+E(xc)   XCENC  =       116.89710311
  PAW double counting   =      3186.18481913    -3143.93794814
  entropy T*S    EENTRO =        -0.00000000
  eigenvalues    EBANDS =      -510.39985075
  atomic energy  EATOM  =      3839.88806440
  Solvation  Ediel_sol  =         0.00000000
  ---------------------------------------------------
  free energy    TOTEN  =        -8.07263852 eV

  energy without entropy =       -8.07263852  energy(sigma->0) =       -8.07263852


--------------------------------------------------------------------------------------------------------




--------------------------------------- Iteration      1(   7)  ---------------------------------------


    POTLOK:  cpu time    0.0825: real time    0.0839
    SETDIJ:  cpu time    0.0050: real time    0.0050
     EDDAV:  cpu time    0.5737: real time    0.5738
       DOS:  cpu time    0.0006: real time    0.0006
    CHARGE:  cpu time    0.0572: real time    0.0573
    MIXING:  cpu time    0.0039: real time    0.0039
    --------------------------------------------
      LOOP:  cpu time    0.7231: real time    0.7245

 eigenvalue-minimisations  :  1838
 total energy-change (2. order) : 0.1386492E+00  (-0.1133558E+00)
 number of electron      41.9999995 magnetization 
 augmentation part        3.4818764 magnetization 

 Broyden mixing:
  rms(total) = 0.13596E+00    rms(broyden)= 0.13596E+00
  rms(prec ) = 0.18585E+00
  weight for this iteration     100.00

 eigenvalues of (default mixing * dielectric matrix)
  average eigenvalue GAMMA=   1.9566
  1.9566  1.9566

 Free energy of the ion-electron system (eV)
  ---------------------------------------------------
  alpha Z        PSCENC =       141.71061232
  Ewald energy   TEWEN  =     -2584.07013028
  -Hartree energ DENC   =     -1053.78281646
  -exchange      EXHF   =         0.00000000
  -V(xc)+E(xc)   XCENC  =       116.77239511
  PAW double counting   =      3222.98533851    -3181.57282164
  entropy T*S    EENTRO =        -0.00002138
  eigenvalues    EBANDS =      -509.86460994
  atomic energy  EATOM  =      3839.88806440
  Solvation  Ediel_sol  =         0.00000000
  ---------------------------------------------------
  free energy    TOTEN  =        -7.93398936 eV

  energy without entropy =       -7.93396798  energy(sigma->0) =       -7.93397867


--------------------------------------------------------------------------------------------------------




--------------------------------------- Iteration      1(   8)  ---------------------------------------


    POTLOK:  cpu time    0.0812: real time    0.0816
    SETDIJ:  cpu time    0.0050: real time    0.0050
     EDDAV:  cpu time    0.5448: real time    0.5452
       DOS:  cpu time    0.0005: real time    0.0005
    CHARGE:  cpu time    0.0575: real time    0.0575
    MIXING:  cpu time    0.0041: real time    0.0041
    --------------------------------------------
      LOOP:  cpu time    0.6932: real time    0.6940

 eigenvalue-minimisations  :  1737
 total energy-change (2. order) :-0.1122637E-01  (-0.1502780E-01)
 number of electron      41.9999995 magnetization 
 augmentation part        3.4732187 magnetization 

 Broyden mixing:
  rms(total) = 0.32296E-01    rms(broyden)= 0.32296E-01
  rms(prec ) = 0.79998E-01
  weight for this iteration     100.00

 eigenvalues of (default mixing * dielectric matrix)
  average eigenvalue GAMMA=   1.8307
  2.6916  1.4003  1.4003

 Free energy of the ion-electron system (eV)
  ---------------------------------------------------
  alpha Z        PSCENC =       141.71061232
  Ewald energy   TEWEN  =     -2584.07013028
  -Hartree energ DENC   =     -1051.04852204
  -exchange      EXHF   =         0.00000000
  -V(xc)+E(xc)   XCENC  =       116.71044910
  PAW double counting   =      3219.05585308    -3175.84556669
  entropy T*S    EENTRO =        -0.00000140
  eigenvalues    EBANDS =      -514.34597423
  atomic energy  EATOM  =      3839.88806440
  Solvation  Ediel_sol  =         0.00000000
  ---------------------------------------------------
  free energy    TOTEN  =        -7.94521573 eV

  energy without entropy =       -7.94521433  energy(sigma->0) =       -7.94521503


--------------------------------------------------------------------------------------------------------




--------------------------------------- Iteration      1(   9)  ---------------------------------------


    POTLOK:  cpu time    0.0812: real time    0.0816
    SETDIJ:  cpu time    0.0051: real time    0.0051
     EDDAV:  cpu time    0.5453: real time    0.5454
       DOS:  cpu time    0.0006: real time    0.0005
    CHARGE:  cpu time    0.0573: real time    0.0573
    MIXING:  cpu time    0.0040: real time    0.0040
    --------------------------------------------
      LOOP:  cpu time    0.6936: real time    0.6941

 eigenvalue-minimisations  :  1781
 total energy-change (2. order) : 0.9639644E-03  (-0.6241752E-02)
 number of electron      41.9999995 magnetization 
 augmentation part        3.4719684 magnetization 

 Broyden mixing:
  rms(total) = 0.16598E-01    rms(broyden)= 0.16598E-01
  rms(prec ) = 0.40736E-01
  weight for this iteration     100.00

 eigenvalues of (default mixing * dielectric matrix)
  average eigenvalue GAMMA=   1.7386
  2.7259  1.9381  1.1452  1.1452

 Free energy of the ion-electron system (eV)
  ---------------------------------------------------
  alpha Z        PSCENC =       141.71061232
  Ewald energy   TEWEN  =     -2584.07013028
  -Hartree energ DENC   =     -1052.39100259
  -exchange      EXHF   =         0.00000000
  -V(xc)+E(xc)   XCENC  =       116.75623833
  PAW double counting   =      3234.43010457    -3191.12246525
  entropy T*S    EENTRO =        -0.00003036
  eigenvalues    EBANDS =      -513.14564292
  atomic energy  EATOM  =      3839.88806440
  Solvation  Ediel_sol  =         0.00000000
  ---------------------------------------------------
  free energy    TOTEN  =        -7.94425177 eV

  energy without entropy =       -7.94422141  energy(sigma->0) =       -7.94423659


--------------------------------------------------------------------------------------------------------




--------------------------------------- Iteration      1(  10)  ---------------------------------------


    POTLOK:  cpu time    0.0812: real time    0.0817
    SETDIJ:  cpu time    0.0052: real time    0.0052
     EDDAV:  cpu time    0.5535: real time    0.5535
       DOS:  cpu time    0.0005: real time    0.0005
    CHARGE:  cpu time    0.0595: real time    0.0595
    MIXING:  cpu time    0.0044: real time    0.0044
    --------------------------------------------
      LOOP:  cpu time    0.7043: real time    0.7049

 eigenvalue-minimisations  :  1790
 total energy-change (2. order) : 0.1121405E-02  (-0.9212007E-03)
 number of electron      41.9999995 magnetization 
 augmentation part        3.4697433 magnetization 

 Broyden mixing:
  rms(total) = 0.33963E-02    rms(broyden)= 0.33962E-02
  rms(prec ) = 0.59200E-02
  weight for this iteration     100.00

 eigenvalues of (default mixing * dielectric matrix)
  average eigenvalue GAMMA=   1.7381
  2.7633  2.3764  1.3223  1.3223  0.9062

 Free energy of the ion-electron system (eV)
  ---------------------------------------------------
  alpha Z        PSCENC =       141.71061232
  Ewald energy   TEWEN  =     -2584.07013028
  -Hartree energ DENC   =     -1052.40197438
  -exchange      EXHF   =         0.00000000
  -V(xc)+E(xc)   XCENC  =       116.76819254
  PAW double counting   =      3231.27279982    -3187.77415647
  entropy T*S    EENTRO =        -0.00000937
  eigenvalues    EBANDS =      -513.33652895
  atomic energy  EATOM  =      3839.88806440
  Solvation  Ediel_sol  =         0.00000000
  ---------------------------------------------------
  free energy    TOTEN  =        -7.94313036 eV

  energy without entropy =       -7.94312100  energy(sigma->0) =       -7.94312568


--------------------------------------------------------------------------------------------------------




--------------------------------------- Iteration      1(  11)  ---------------------------------------


    POTLOK:  cpu time    0.0830: real time    0.0842
    SETDIJ:  cpu time    0.0050: real time    0.0050
     EDDAV:  cpu time    0.6485: real time    0.6487
       DOS:  cpu time    0.0005: real time    0.0005
    CHARGE:  cpu time    0.0571: real time    0.0571
    MIXING:  cpu time    0.0042: real time    0.0042
    --------------------------------------------
      LOOP:  cpu time    0.7983: real time    0.7997

 eigenvalue-minimisations  :  2117
 total energy-change (2. order) :-0.1213779E-03  (-0.5926298E-04)
 number of electron      41.9999995 magnetization 
 augmentation part        3.4705154 magnetization 

 Broyden mixing:
  rms(total) = 0.28594E-02    rms(broyden)= 0.28594E-02
  rms(prec ) = 0.74356E-02
  weight for this iteration     100.00

 eigenvalues of (default mixing * dielectric matrix)
  average eigenvalue GAMMA=   1.8010
  3.3089  2.4093  2.0285  1.1197  1.1197  0.8196

 Free energy of the ion-electron system (eV)
  ---------------------------------------------------
  alpha Z        PSCENC =       141.71061232
  Ewald energy   TEWEN  =     -2584.07013028
  -Hartree energ DENC   =     -1052.33638890
  -exchange      EXHF   =         0.00000000
  -V(xc)+E(xc)   XCENC  =       116.76874430
  PAW double counting   =      3232.42879509    -3188.88422737
  entropy T*S    EENTRO =        -0.00000776
  eigenvalues    EBANDS =      -513.44871355
  atomic energy  EATOM  =      3839.88806440
  Solvation  Ediel_sol  =         0.00000000
  ---------------------------------------------------
  free energy    TOTEN  =        -7.94325174 eV

  energy without entropy =       -7.94324398  energy(sigma->0) =       -7.94324786


--------------------------------------------------------------------------------------------------------




--------------------------------------- Iteration      1(  12)  ---------------------------------------


    POTLOK:  cpu time    0.0820: real time    0.0825
    SETDIJ:  cpu time    0.0046: real time    0.0046
     EDDAV:  cpu time    0.5516: real time    0.5517
       DOS:  cpu time    0.0005: real time    0.0005
    CHARGE:  cpu time    0.0573: real time    0.0573
    MIXING:  cpu time    0.0043: real time    0.0043
    --------------------------------------------
      LOOP:  cpu time    0.7005: real time    0.7010

 eigenvalue-minimisations  :  1820
 total energy-change (2. order) : 0.2570625E-04  (-0.4039019E-04)
 number of electron      41.9999995 magnetization 
 augmentation part        3.4706997 magnetization 

 Broyden mixing:
  rms(total) = 0.53463E-03    rms(broyden)= 0.53462E-03
  rms(prec ) = 0.13815E-02
  weight for this iteration     100.00

 eigenvalues of (default mixing * dielectric matrix)
  average eigenvalue GAMMA=   1.6871
  3.1573  2.5647  1.7292  1.3795  0.9647  1.0070  1.0070

 Free energy of the ion-electron system (eV)
  ---------------------------------------------------
  alpha Z        PSCENC =       141.71061232
  Ewald energy   TEWEN  =     -2584.07013028
  -Hartree energ DENC   =     -1052.34902965
  -exchange      EXHF   =         0.00000000
  -V(xc)+E(xc)   XCENC  =       116.76845191
  PAW double counting   =      3234.18659936    -3190.69283167
  entropy T*S    EENTRO =        -0.00000971
  eigenvalues    EBANDS =      -513.38495273
  atomic energy  EATOM  =      3839.88806440
  Solvation  Ediel_sol  =         0.00000000
  ---------------------------------------------------
  free energy    TOTEN  =        -7.94322604 eV

  energy without entropy =       -7.94321633  energy(sigma->0) =       -7.94322118


--------------------------------------------------------------------------------------------------------




--------------------------------------- Iteration      1(  13)  ---------------------------------------


    POTLOK:  cpu time    0.0819: real time    0.0822
    SETDIJ:  cpu time    0.0046: real time    0.0046
     EDDAV:  cpu time    0.6235: real time    0.6239
       DOS:  cpu time    0.0005: real time    0.0005
    CHARGE:  cpu time    0.0574: real time    0.0574
    MIXING:  cpu time    0.0044: real time    0.0044
    --------------------------------------------
      LOOP:  cpu time    0.7722: real time    0.7730

 eigenvalue-minimisations  :  2094
 total energy-change (2. order) : 0.8322413E-06  (-0.2168958E-05)
 number of electron      41.9999995 magnetization 
 augmentation part        3.4705144 magnetization 

 Broyden mixing:
  rms(total) = 0.15709E-03    rms(broyden)= 0.15709E-03
  rms(prec ) = 0.31518E-03
  weight for this iteration     100.00

 eigenvalues of (default mixing * dielectric matrix)
  average eigenvalue GAMMA=   1.7593
  2.9219  2.9219  2.0146  2.0146  1.2087  1.0662  0.9630  0.9630

 Free energy of the ion-electron system (eV)
  ---------------------------------------------------
  alpha Z        PSCENC =       141.71061232
  Ewald energy   TEWEN  =     -2584.07013028
  -Hartree energ DENC   =     -1052.34983908
  -exchange      EXHF   =         0.00000000
  -V(xc)+E(xc)   XCENC  =       116.76896869
  PAW double counting   =      3233.78470515    -3190.28444487
  entropy T*S    EENTRO =        -0.00000922
  eigenvalues    EBANDS =      -513.39115232
  atomic energy  EATOM  =      3839.88806440
  Solvation  Ediel_sol  =         0.00000000
  ---------------------------------------------------
  free energy    TOTEN  =        -7.94322520 eV

  energy without entropy =       -7.94321599  energy(sigma->0) =       -7.94322059


--------------------------------------------------------------------------------------------------------




--------------------------------------- Iteration      1(  14)  ---------------------------------------


    POTLOK:  cpu time    0.0825: real time    0.0848
    SETDIJ:  cpu time    0.0046: real time    0.0046
     EDDAV:  cpu time    0.6619: real time    0.6620
       DOS:  cpu time    0.0005: real time    0.0005
    CHARGE:  cpu time    0.0580: real time    0.0580
    MIXING:  cpu time    0.0046: real time    0.0046
    --------------------------------------------
      LOOP:  cpu time    0.8122: real time    0.8146

 eigenvalue-minimisations  :  2217
 total energy-change (2. order) :-0.1343492E-06  (-0.5680105E-07)
 number of electron      41.9999995 magnetization 
 augmentation part        3.4705263 magnetization 

 Broyden mixing:
  rms(total) = 0.68360E-04    rms(broyden)= 0.68360E-04
  rms(prec ) = 0.16804E-03
  weight for this iteration     100.00

 eigenvalues of (default mixing * dielectric matrix)
  average eigenvalue GAMMA=   1.7839
  3.0581  2.8927  2.1115  2.1115  1.6643  1.2974  0.9705  0.9705  0.9785

 Free energy of the ion-electron system (eV)
  ---------------------------------------------------
  alpha Z        PSCENC =       141.71061232
  Ewald energy   TEWEN  =     -2584.07013028
  -Hartree energ DENC   =     -1052.35449633
  -exchange      EXHF   =         0.00000000
  -V(xc)+E(xc)   XCENC  =       116.76928809
  PAW double counting   =      3233.67562659    -3190.17823388
  entropy T*S    EENTRO =        -0.00000924
  eigenvalues    EBANDS =      -513.38394701
  atomic energy  EATOM  =      3839.88806440
  Solvation  Ediel_sol  =         0.00000000
  ---------------------------------------------------
  free energy    TOTEN  =        -7.94322534 eV

  energy without entropy =       -7.94321610  energy(sigma->0) =       -7.94322072


--------------------------------------------------------------------------------------------------------




--------------------------------------- Iteration      1(  15)  ---------------------------------------


    POTLOK:  cpu time    0.0814: real time    0.0818
    SETDIJ:  cpu time    0.0049: real time    0.0049
     EDDAV:  cpu time    0.4859: real time    0.4859
       DOS:  cpu time    0.0005: real time    0.0005
    CHARGE:  cpu time    0.0573: real time    0.0574
    MIXING:  cpu time    0.0047: real time    0.0047
    --------------------------------------------
      LOOP:  cpu time    0.6348: real time    0.6352

 eigenvalue-minimisations  :  1464
 total energy-change (2. order) : 0.3140258E-07  (-0.2353210E-08)
 number of electron      41.9999995 magnetization 
 augmentation part        3.4705285 magnetization 

 Broyden mixing:
  rms(total) = 0.37935E-04    rms(broyden)= 0.37935E-04
  rms(prec ) = 0.11821E-03
  weight for this iteration     100.00

 eigenvalues of (default mixing * dielectric matrix)
  average eigenvalue GAMMA=   1.7877
  3.2659  2.8687  2.5476  2.1984  1.7860  1.2384  0.9721  0.9721  1.0041  1.0239

 Free energy of the ion-electron system (eV)
  ---------------------------------------------------
  alpha Z        PSCENC =       141.71061232
  Ewald energy   TEWEN  =     -2584.07013028
  -Hartree energ DENC   =     -1052.35361914
  -exchange      EXHF   =         0.00000000
  -V(xc)+E(xc)   XCENC  =       116.76926112
  PAW double counting   =      3233.66529768    -3190.16790398
  entropy T*S    EENTRO =        -0.00000925
  eigenvalues    EBANDS =      -513.38479818
  atomic energy  EATOM  =      3839.88806440
  Solvation  Ediel_sol  =         0.00000000
  ---------------------------------------------------
  free energy    TOTEN  =        -7.94322531 eV

  energy without entropy =       -7.94321606  energy(sigma->0) =       -7.94322068


--------------------------------------------------------------------------------------------------------




--------------------------------------- Iteration      1(  16)  ---------------------------------------


    POTLOK:  cpu time    0.0816: real time    0.0819
    SETDIJ:  cpu time    0.0048: real time    0.0048
     EDDAV:  cpu time    0.4602: real time    0.4604
       DOS:  cpu time    0.0005: real time    0.0005
    CHARGE:  cpu time    0.0578: real time    0.0578
    MIXING:  cpu time    0.0048: real time    0.0048
    --------------------------------------------
      LOOP:  cpu time    0.6097: real time    0.6102

 eigenvalue-minimisations  :  1354
 total energy-change (2. order) : 0.1166927E-07  (-0.7490246E-08)
 number of electron      41.9999995 magnetization 
 augmentation part        3.4705272 magnetization 

 Broyden mixing:
  rms(total) = 0.43901E-05    rms(broyden)= 0.43899E-05
  rms(prec ) = 0.77907E-05
  weight for this iteration     100.00

 eigenvalues of (default mixing * dielectric matrix)
  average eigenvalue GAMMA=   1.6808
  3.2605  2.9480  2.5305  2.1282  1.7902  1.2335  1.0530  1.0351  0.9620  0.9620
  0.5864

 Free energy of the ion-electron system (eV)
  ---------------------------------------------------
  alpha Z        PSCENC =       141.71061232
  Ewald energy   TEWEN  =     -2584.07013028
  -Hartree energ DENC   =     -1052.35432275
  -exchange      EXHF   =         0.00000000
  -V(xc)+E(xc)   XCENC  =       116.76926919
  PAW double counting   =      3233.66616573    -3190.16915388
  entropy T*S    EENTRO =        -0.00000928
  eigenvalues    EBANDS =      -513.38372075
  atomic energy  EATOM  =      3839.88806440
  Solvation  Ediel_sol  =         0.00000000
  ---------------------------------------------------
  free energy    TOTEN  =        -7.94322529 eV

  energy without entropy =       -7.94321602  energy(sigma->0) =       -7.94322066


--------------------------------------------------------------------------------------------------------




--------------------------------------- Iteration      1(  17)  ---------------------------------------


    POTLOK:  cpu time    0.0819: real time    0.0823
    SETDIJ:  cpu time    0.0046: real time    0.0046
     EDDAV:  cpu time    0.4432: real time    0.4432
       DOS:  cpu time    0.0005: real time    0.0005
    --------------------------------------------
      LOOP:  cpu time    0.5302: real time    0.5307

 eigenvalue-minimisations  :  1337
 total energy-change (2. order) :-0.2319211E-08  (-0.3336967E-09)
 number of electron      41.9999995 magnetization 
 augmentation part        3.4705272 magnetization 

 Free energy of the ion-electron system (eV)
  ---------------------------------------------------
  alpha Z        PSCENC =       141.71061232
  Ewald energy   TEWEN  =     -2584.07013028
  -Hartree energ DENC   =     -1052.35438231
  -exchange      EXHF   =         0.00000000
  -V(xc)+E(xc)   XCENC  =       116.76927247
  PAW double counting   =      3233.66745842    -3190.17047926
  entropy T*S    EENTRO =        -0.00000928
  eigenvalues    EBANDS =      -513.38363179
  atomic energy  EATOM  =      3839.88806440
  Solvation  Ediel_sol  =         0.00000000
  ---------------------------------------------------
  free energy    TOTEN  =        -7.94322530 eV

  energy without entropy =       -7.94321602  energy(sigma->0) =       -7.94322066


--------------------------------------------------------------------------------------------------------




 average (electrostatic) potential at core
  the test charge radii are     1.0856  1.1312  1.1097
  (the norm of the test charge is              1.0000)
       1-107.2998       2 -51.1297       3 -38.2497       4 -38.2497
 
 
 
 E-fermi :   1.8982     XC(G=0):  -7.5227     alpha+bet : -7.1499


 k-point     1 :       0.0000    0.0000    0.0000
  band No.  band energies     occupation 
      1     -25.9463      2.00000
      2     -25.9311      2.00000
      3     -21.3843      2.00000
      4     -19.0872      2.00000
      5     -19.0872      2.00000
      6     -19.0872      2.00000
      7     -19.0823      2.00000
      8     -19.0823      2.00000
      9     -10.1211      2.00000
     10     -10.1211      2.00000
     11     -10.1211      2.00000
     12     -10.0421      2.00000
     13     -10.0421      2.00000
     14     -10.0421      2.00000
     15      -8.2021      2.00000
     16      -8.2021      2.00000
     17      -8.2021      2.00000
     18      -7.0430      2.00000
     19       1.7208      2.00000
     20       1.7208      2.00000
     21       1.7208      2.00000
     22       1.9793      0.02174
     23       3.6668      0.00000
     24       3.6668      0.00000
     25       4.5896      0.00000

 k-point     2 :       0.1250    0.0000    0.0000
  band No.  band energies     occupation 
      1     -25.9457      2.00000
      2     -25.9316      2.00000
      3     -21.3845      2.00000
      4     -19.0872      2.00000
      5     -19.0872      2.00000
      6     -19.0872      2.00000
      7     -19.0823      2.00000
      8     -19.0823      2.00000
      9     -10.1259      2.00000
     10     -10.1197      2.00000
     11     -10.1197      2.00000
     12     -10.0458      2.00000
     13     -10.0458      2.00000
     14     -10.0412      2.00000
     15      -8.2111      2.00000
     16      -8.1991      2.00000
     17      -8.1991      2.00000
     18      -7.0206      2.00000
     19       1.2968      2.00000
     20       1.6763      2.00000
     21       1.6763      2.00000
     22       2.5826      0.00000
     23       3.8409      0.00000
     24       3.8409      0.00000
     25       4.4431      0.00000

 k-point     3 :       0.2500    0.0000    0.0000
  band No.  band energies     occupation 
      1     -25.9439      2.00000
      2     -25.9332      2.00000
      3     -21.3850      2.00000
      4     -19.0872      2.00000
      5     -19.0872      2.00000
      6     -19.0870      2.00000
      7     -19.0824      2.00000
      8     -19.0824      2.00000
      9     -10.1304      2.00000
     10     -10.1153      2.00000
     11     -10.1153      2.00000
     12     -10.0557      2.00000
     13     -10.0557      2.00000
     14     -10.0476      2.00000
     15      -8.2245      2.00000
     16      -8.1920      2.00000
     17      -8.1919      2.00000
     18      -6.9751      2.00000
     19       0.9712      2.00000
     20       1.5897      2.00000
     21       1.5898      2.00000
     22       3.3207      0.00000
     23       4.2854      0.00000
     24       4.2854      0.00000
     25       4.2987      0.00000

 k-point     4 :       0.3750    0.0000    0.0000
  band No.  band energies     occupation 
      1     -25.9413      2.00000
      2     -25.9356      2.00000
      3     -21.3855      2.00000
      4     -19.0871      2.00000
      5     -19.0871      2.00000
      6     -19.0869      2.00000
      7     -19.0824      2.00000
      8     -19.0824      2.00000
      9     -10.1274      2.00000
     10     -10.1084      2.00000
     11     -10.1084      2.00000
     12     -10.0682      2.00000
     13     -10.0682      2.00000
     14     -10.0633      2.00000
     15      -8.2289      2.00000
     16      -8.1848      2.00000
     17      -8.1848      2.00000
     18      -6.9391      2.00000
     19       0.8031      2.00000
     20       1.5231      2.00000
     21       1.5231      2.00000
     22       3.7628      0.00000
     23       4.6473      0.00000
     24       4.6581      0.00000
     25       4.6581      0.00000

 k-point     5 :       0.5000    0.0000    0.0000
  band No.  band energies     occupation 
      1     -25.9384      2.00000
      2     -25.9384      2.00000
      3     -21.3857      2.00000
      4     -19.0871      2.00000
      5     -19.0871      2.00000
      6     -19.0869      2.00000
      7     -19.0823      2.00000
      8     -19.0823      2.00000
      9     -10.1237      2.00000
     10     -10.1035      2.00000
     11     -10.1035      2.00000
     12     -10.0753      2.00000
     13     -10.0753      2.00000
     14     -10.0726      2.00000
     15      -8.2287      2.00000
     16      -8.1819      2.00000
     17      -8.1818      2.00000
     18      -6.9264      2.00000
     19       0.7496      2.00000
     20       1.4997      2.00000
     21       1.4997      2.00000
     22       3.9914      0.00000
     23       4.6369      0.00000
     24       4.7095      0.00000
     25       4.7095      0.00000

 k-point     6 :       0.1250    0.1250    0.0000
  band No.  band energies     occupation 
      1     -25.9455      2.00000
      2     -25.9318      2.00000
      3     -21.3846      2.00000
      4     -19.0872      2.00000
      5     -19.0872      2.00000
      6     -19.0871      2.00000
      7     -19.0824      2.00000
      8     -19.0823      2.00000
      9     -10.1320      2.00000
     10     -10.1320      2.00000
     11     -10.1028      2.00000
     12     -10.0619      2.00000
     13     -10.0359      2.00000
     14     -10.0359      2.00000
     15      -8.2179      2.00000
     16      -8.1961      2.00000
     17      -8.1961      2.00000
     18      -7.0143      2.00000
     19       1.1801      2.00000
     20       1.7321      2.00000
     21       1.7321      2.00000
     22       2.6113      0.00000
     23       3.7659      0.00000
     24       4.0376      0.00000
     25       4.2910      0.00000

 k-point     7 :       0.2500    0.1250    0.0000
  band No.  band energies     occupation 
      1     -25.9442      2.00000
      2     -25.9329      2.00000
      3     -21.3850      2.00000
      4     -19.0872      2.00000
      5     -19.0872      2.00000
      6     -19.0871      2.00000
      7     -19.0824      2.00000
      8     -19.0823      2.00000
      9     -10.1410      2.00000
     10     -10.1387      2.00000
     11     -10.0871      2.00000
     12     -10.0813      2.00000
     13     -10.0347      2.00000
     14     -10.0343      2.00000
     15      -8.2293      2.00000
     16      -8.1910      2.00000
     17      -8.1890      2.00000
     18      -6.9801      2.00000
     19       0.9588      2.00000
     20       1.6445      2.00000
     21       1.6982      2.00000
     22       3.1540      0.00000
     23       4.0246      0.00000
     24       4.0591      0.00000
     25       4.4681      0.00000

 k-point     8 :       0.3750    0.1250    0.0000
  band No.  band energies     occupation 
      1     -25.9420      2.00000
      2     -25.9349      2.00000
      3     -21.3854      2.00000
      4     -19.0871      2.00000
      5     -19.0871      2.00000
      6     -19.0870      2.00000
      7     -19.0824      2.00000
      8     -19.0823      2.00000
      9     -10.1448      2.00000
     10     -10.1376      2.00000
     11     -10.1046      2.00000
     12     -10.0672      2.00000
     13     -10.0446      2.00000
     14     -10.0413      2.00000
     15      -8.2299      2.00000
     16      -8.1873      2.00000
     17      -8.1819      2.00000
     18      -6.9466      2.00000
     19       0.8540      2.00000
     20       1.5114      2.00000
     21       1.6165      2.00000
     22       3.6486      0.00000
     23       4.2312      0.00000
     24       4.4774      0.00000
     25       4.6841      0.00000

 k-point     9 :       0.5000    0.1250    0.0000
  band No.  band energies     occupation 
      1     -25.9394      2.00000
      2     -25.9374      2.00000
      3     -21.3857      2.00000
      4     -19.0871      2.00000
      5     -19.0871      2.00000
      6     -19.0869      2.00000
      7     -19.0823      2.00000
      8     -19.0823      2.00000
[...]
  band No.  band energies     occupation 
      1     -25.9406      2.00000
      2     -25.9361      2.00000
      3     -21.3861      2.00000
      4     -19.0871      2.00000
      5     -19.0870      2.00000
      6     -19.0869      2.00000
      7     -19.0823      2.00000
      8     -19.0823      2.00000
      9     -10.1946      2.00000
     10     -10.1794      2.00000
     11     -10.1554      2.00000
     12     -10.0167      2.00000
     13     -10.0121      2.00000
     14      -9.9996      2.00000
     15      -8.2439      2.00000
     16      -8.1689      2.00000
     17      -8.1657      2.00000
     18      -6.9418      2.00000
     19       0.9740      2.00000
     20       1.6369      2.00000
     21       1.7447      1.99999
     22       3.2794      0.00000
     23       3.7046      0.00000
     24       4.5169      0.00000
     25       4.8495      0.00000

 k-point    20 :      -0.3750    0.3750    0.0000
  band No.  band energies     occupation 
      1     -25.9393      2.00000
      2     -25.9373      2.00000
      3     -21.3861      2.00000
      4     -19.0871      2.00000
      5     -19.0870      2.00000
      6     -19.0869      2.00000
      7     -19.0823      2.00000
      8     -19.0823      2.00000
      9     -10.2023      2.00000
     10     -10.1658      2.00000
     11     -10.1340      2.00000
     12     -10.0393      2.00000
     13     -10.0235      2.00000
     14      -9.9976      2.00000
     15      -8.2255      2.00000
     16      -8.1806      2.00000
     17      -8.1685      2.00000
     18      -6.9380      2.00000
     19       1.1189      2.00000
     20       1.3404      2.00000
     21       1.6512      2.00000
     22       3.5992      0.00000
     23       3.8569      0.00000
     24       4.7458      0.00000
     25       4.7880      0.00000

 k-point    21 :       0.5000    0.5000    0.0000
  band No.  band energies     occupation 
      1     -25.9407      2.00000
      2     -25.9359      2.00000
      3     -21.3862      2.00000
      4     -19.0871      2.00000
      5     -19.0871      2.00000
      6     -19.0869      2.00000
      7     -19.0823      2.00000
      8     -19.0823      2.00000
      9     -10.1872      2.00000
     10     -10.1872      2.00000
     11     -10.1774      2.00000
     12     -10.0065      2.00000
     13     -10.0065      2.00000
     14      -9.9936      2.00000
     15      -8.2508      2.00000
     16      -8.1629      2.00000
     17      -8.1629      2.00000
     18      -6.9437      2.00000
     19       0.9713      2.00000
     20       1.7880      1.99817
     21       1.7880      1.99817
     22       3.0541      0.00000
     23       3.5435      0.00000
     24       4.5187      0.00000
     25       5.1307      0.00000

 k-point    22 :       0.3750    0.2500    0.1250
  band No.  band energies     occupation 
      1     -25.9428      2.00000
      2     -25.9342      2.00000
      3     -21.3853      2.00000
      4     -19.0871      2.00000
      5     -19.0871      2.00000
      6     -19.0870      2.00000
      7     -19.0824      2.00000
      8     -19.0823      2.00000
      9     -10.1615      2.00000
     10     -10.1356      2.00000
     11     -10.1071      2.00000
     12     -10.0630      2.00000
     13     -10.0474      2.00000
     14     -10.0191      2.00000
     15      -8.2334      2.00000
     16      -8.1847      2.00000
     17      -8.1839      2.00000
     18      -6.9559      2.00000
     19       0.8778      2.00000
     20       1.5885      2.00000
     21       1.6701      2.00000
     22       3.5326      0.00000
     23       3.8891      0.00000
     24       4.2945      0.00000
     25       4.7351      0.00000

 k-point    23 :       0.5000    0.2500    0.1250
  band No.  band energies     occupation 
      1     -25.9407      2.00000
      2     -25.9361      2.00000
      3     -21.3857      2.00000
      4     -19.0871      2.00000
      5     -19.0871      2.00000
      6     -19.0869      2.00000
      7     -19.0823      2.00000
      8     -19.0823      2.00000
      9     -10.1773      2.00000
     10     -10.1289      2.00000
     11     -10.1184      2.00000
     12     -10.0683      2.00000
     13     -10.0425      2.00000
     14     -10.0162      2.00000
     15      -8.2239      2.00000
     16      -8.1877      2.00000
     17      -8.1771      2.00000
     18      -6.9383      2.00000
     19       0.9119      2.00000
     20       1.4769      2.00000
     21       1.5694      2.00000
     22       3.8144      0.00000
     23       4.1610      0.00000
     24       4.3960      0.00000
     25       4.7987      0.00000

 k-point    24 :      -0.3750    0.2500    0.1250
  band No.  band energies     occupation 
      1     -25.9384      2.00000
      2     -25.9383      2.00000
      3     -21.3859      2.00000
      4     -19.0871      2.00000
      5     -19.0871      2.00000
      6     -19.0869      2.00000
      7     -19.0823      2.00000
      8     -19.0823      2.00000
      9     -10.1838      2.00000
     10     -10.1340      2.00000
     11     -10.1050      2.00000
     12     -10.0854      2.00000
     13     -10.0283      2.00000
     14     -10.0228      2.00000
     15      -8.2146      2.00000
     16      -8.1931      2.00000
     17      -8.1743      2.00000
     18      -6.9325      2.00000
     19       0.9598      2.00000
     20       1.3791      2.00000
     21       1.5491      2.00000
     22       4.0234      0.00000
     23       4.1015      0.00000
     24       4.6141      0.00000
     25       4.7761      0.00000

 k-point    25 :       0.5000    0.3750    0.1250
  band No.  band energies     occupation 
      1     -25.9408      2.00000
      2     -25.9359      2.00000
      3     -21.3859      2.00000
      4     -19.0871      2.00000
      5     -19.0871      2.00000
      6     -19.0869      2.00000
      7     -19.0823      2.00000
      8     -19.0823      2.00000
      9     -10.1934      2.00000
     10     -10.1545      2.00000
     11     -10.1434      2.00000
     12     -10.0384      2.00000
     13     -10.0159      2.00000
     14     -10.0084      2.00000
     15      -8.2376      2.00000
     16      -8.1774      2.00000
     17      -8.1693      2.00000
     18      -6.9409      2.00000
     19       0.9338      2.00000
     20       1.6076      2.00000
     21       1.6441      2.00000
     22       3.5521      0.00000
     23       3.8468      0.00000
     24       4.4439      0.00000
     25       4.6923      0.00000

 k-point    26 :      -0.3750    0.3750    0.1250
  band No.  band energies     occupation 
      1     -25.9393      2.00000
      2     -25.9374      2.00000
      3     -21.3861      2.00000
      4     -19.0871      2.00000
      5     -19.0870      2.00000
      6     -19.0869      2.00000
      7     -19.0823      2.00000
      8     -19.0823      2.00000
      9     -10.2090      2.00000
     10     -10.1471      2.00000
     11     -10.1277      2.00000
     12     -10.0647      2.00000
     13     -10.0100      2.00000
     14     -10.0033      2.00000
     15      -8.2201      2.00000
     16      -8.1885      2.00000
     17      -8.1669      2.00000
     18      -6.9373      2.00000
     19       1.0967      2.00000
     20       1.3694      2.00000
     21       1.5950      2.00000
     22       3.7547      0.00000
     23       3.9253      0.00000
     24       4.5063      0.00000
     25       4.6987      0.00000

 k-point    27 :      -0.2500    0.3750    0.1250
  band No.  band energies     occupation 
      1     -25.9391      2.00000
      2     -25.9376      2.00000
      3     -21.3860      2.00000
      4     -19.0871      2.00000
      5     -19.0870      2.00000
      6     -19.0869      2.00000
      7     -19.0823      2.00000
      8     -19.0823      2.00000
      9     -10.2033      2.00000
     10     -10.1390      2.00000
     11     -10.0979      2.00000
     12     -10.0956      2.00000
     13     -10.0222      2.00000
     14     -10.0030      2.00000
     15      -8.2068      2.00000
     16      -8.2004      2.00000
     17      -8.1704      2.00000
     18      -6.9360      2.00000
     19       1.0938      2.00000
     20       1.3244      2.00000
     21       1.5523      2.00000
     22       3.9035      0.00000
     23       4.1730      0.00000
     24       4.2475      0.00000
     25       4.8254      0.00000

 k-point    28 :      -0.3750    0.5000    0.1250
  band No.  band energies     occupation 
      1     -25.9400      2.00000
      2     -25.9366      2.00000
      3     -21.3862      2.00000
      4     -19.0871      2.00000
      5     -19.0870      2.00000
      6     -19.0869      2.00000
      7     -19.0823      2.00000
      8     -19.0823      2.00000
      9     -10.2104      2.00000
     10     -10.1621      2.00000
     11     -10.1542      2.00000
     12     -10.0345      2.00000
     13     -10.0047      2.00000
     14      -9.9954      2.00000
     15      -8.2365      2.00000
     16      -8.1746      2.00000
     17      -8.1633      2.00000
     18      -6.9408      2.00000
     19       1.0456      2.00000
     20       1.5764      2.00000
     21       1.6554      2.00000
     22       3.4292      0.00000
     23       3.6609      0.00000
     24       4.5920      0.00000
     25       4.8394      0.00000

 k-point    29 :      -0.2500    0.5000    0.2500
  band No.  band energies     occupation 
      1     -25.9383      2.00000
      2     -25.9383      2.00000
      3     -21.3861      2.00000
      4     -19.0871      2.00000
      5     -19.0869      2.00000
      6     -19.0869      2.00000
      7     -19.0823      2.00000
      8     -19.0823      2.00000
      9     -10.2217      2.00000
     10     -10.1429      2.00000
     11     -10.0998      2.00000
     12     -10.0998      2.00000
     13     -10.0012      2.00000
     14      -9.9988      2.00000
     15      -8.2042      2.00000
     16      -8.2042      2.00000
     17      -8.1637      2.00000
     18      -6.9379      2.00000
     19       1.2604      2.00000
     20       1.2605      2.00000
     21       1.5430      2.00000
     22       3.7479      0.00000
     23       4.1811      0.00000
     24       4.1811      0.00000
     25       4.6225      0.00000


--------------------------------------------------------------------------------------------------------


 soft charge-density along one line, spin component           1
         0         1         2         3         4         5         6         7         8         9
 total charge-density along one line
 
 pseudopotential strength for first ion, spin component:           1
-19.449  -0.000   0.000  -0.000  -0.000   5.069   0.000  -0.000
 -0.000 -19.449  -0.000  -0.000   0.000   0.000   5.069   0.000
  0.000  -0.000 -19.448  -0.000   0.000  -0.000   0.000   5.068
 -0.000  -0.000  -0.000 -19.449  -0.000   0.000   0.000   0.000
 -0.000   0.000   0.000  -0.000 -19.448   0.000  -0.000  -0.000
  5.069   0.000  -0.000   0.000   0.000   5.262  -0.000   0.000
  0.000   5.069   0.000   0.000  -0.000  -0.000   5.262  -0.000
 -0.000   0.000   5.068   0.000  -0.000   0.000  -0.000   5.262
  0.000   0.000   0.000   5.069   0.000  -0.000  -0.000  -0.000
  0.000  -0.000  -0.000   0.000   5.068   0.000   0.000   0.000
  0.000   0.000  -0.000   0.000   0.000   0.000   0.000  -0.000
  0.000   0.000  -0.000   0.000  -0.000  -0.000  -0.000   0.000
  0.000   0.000  -0.000   0.000  -0.000   0.000   0.000  -0.000
  0.000   0.000   0.000   0.000   0.000   0.000   0.000   0.000
  0.000   0.000  -0.000   0.000   0.000   0.000   0.000  -0.000
  0.000   0.000  -0.000   0.000  -0.000   0.000   0.000  -0.000
  0.000   0.000   0.000   0.000   0.000   0.000   0.000   0.000
  0.000   0.000  -0.000   0.000   0.000   0.000   0.000  -0.000
 total augmentation occupancy for first ion, spin component:           1
  1.999   0.000   0.000   0.000  -0.000   0.002   0.000   0.000  -0.000  -0.000  -0.000   0.000   0.000  -0.000   0.000   0.000
  0.000   1.999  -0.000   0.000   0.000   0.000   0.002  -0.000   0.000  -0.000  -0.000   0.000  -0.000   0.000  -0.000   0.000
  0.000  -0.000   1.999   0.000   0.000  -0.000   0.000   0.002   0.000   0.000   0.000   0.000   0.000   0.000   0.000  -0.000
  0.000   0.000   0.000   1.999  -0.000   0.000   0.000  -0.000   0.002  -0.000  -0.000  -0.000   0.000  -0.000   0.000  -0.000
  0.000   0.000   0.000   0.000   1.999   0.000  -0.000   0.000   0.000   0.002   0.000   0.000  -0.000   0.000  -0.000   0.000
  0.002  -0.000   0.000  -0.000   0.000   0.000   0.000  -0.000  -0.000  -0.000   0.000   0.000   0.000  -0.000  -0.000   0.000
  0.000   0.002  -0.000   0.000   0.000   0.000   0.000   0.000   0.000  -0.000   0.000   0.000   0.000  -0.000   0.000   0.000
  0.000  -0.000   0.002   0.000   0.000   0.000   0.000   0.000   0.000   0.000   0.000  -0.000   0.000   0.000   0.000   0.000
  0.000  -0.000  -0.000   0.002   0.000  -0.000   0.000   0.000   0.000  -0.000   0.000  -0.000   0.000   0.000   0.000   0.000
 -0.000  -0.000   0.000  -0.000   0.002  -0.000   0.000   0.000   0.000   0.000  -0.000   0.000   0.000   0.000  -0.000   0.000
 -0.000   0.000   0.000   0.000  -0.000   0.000   0.000   0.000  -0.000   0.000   1.929   0.021   0.000   0.000   0.000  -0.000
  0.000   0.000   0.000   0.000   0.000   0.000   0.000  -0.000  -0.000   0.000   0.021   0.001  -0.000   0.000   0.000   0.000
  0.000  -0.000   0.000   0.000   0.000   0.000  -0.000   0.000  -0.000  -0.000   0.000   0.000   1.384   0.000   0.000  -0.062
  0.000   0.000  -0.000  -0.000   0.000   0.000   0.000   0.000  -0.000  -0.000  -0.000   0.000   0.000   1.384  -0.000  -0.000
  0.000  -0.000   0.000  -0.000  -0.000   0.000  -0.000   0.000   0.000  -0.000   0.000   0.000   0.000   0.000   1.384   0.000
  0.000   0.000  -0.000   0.000   0.000  -0.000   0.000   0.000  -0.000  -0.000  -0.000   0.000  -0.062   0.000  -0.000   0.003
  0.000  -0.000  -0.000  -0.000   0.000   0.000  -0.000   0.000  -0.000   0.000   0.000   0.000   0.000  -0.062  -0.000   0.000
  0.000   0.000  -0.000   0.000   0.000  -0.000   0.000   0.000   0.000   0.000   0.000  -0.000   0.000  -0.000  -0.062  -0.000


------------------------ aborting loop because EDIFF is reached ----------------------------------------


    CHARGE:  cpu time    0.0584: real time    0.0584
    FORLOC:  cpu time    0.0098: real time    0.0098
    FORNL :  cpu time    0.0850: real time    0.0850
    STRESS:  cpu time    0.2893: real time    0.2893
    FORCOR:  cpu time    0.0900: real time    0.0913
    FORHAR:  cpu time    0.0238: real time    0.0238
    MIXING:  cpu time    0.0054: real time    0.0054
    OFIELD:  cpu time    0.0001: real time    0.0001

  FORCE on cell =-STRESS in cart. coord.  units (eV):
  Direction    XX          YY          ZZ          XY          YZ          ZX
  --------------------------------------------------------------------------------------
  Alpha Z   141.71061   141.71061   141.71061
  Ewald    -861.35744  -861.35744  -861.35744     0.00037     0.00037     0.00037
  Hartree   350.78480   350.78480   350.78480    -0.00001    -0.00001    -0.00001
  E(xc)    -170.72334  -170.72334  -170.72334     0.00000     0.00000     0.00000
  Local    -118.52559  -118.52559  -118.52559    -0.00042    -0.00042    -0.00042
  n-local    27.56646    27.77065    25.81267     1.18031    -0.98527     0.65669
  augment   118.59222   118.59222   118.59222    -0.00001    -0.00001    -0.00001
  Kinetic   513.33739   512.98845   511.07723     1.86258    -1.57285     1.07734
  Fock        0.00000     0.00000     0.00000     0.00000     0.00000     0.00000
  -------------------------------------------------------------------------------------
  Total      -0.00111    -0.00111    -0.00111     0.00000     0.00000     0.00000
  in kB      -0.00911    -0.00911    -0.00911     0.00000     0.00000     0.00000
  external pressure =       -0.01 kB  Pullay stress =        0.00 kB


 VOLUME and BASIS-vectors are now :
 -----------------------------------------------------------------------------
  energy-cutoff  :      520.00
  volume of cell :      195.99
      direct lattice vectors                 reciprocal lattice vectors
     0.000000000  4.610360182  4.610360182    -0.108451396  0.108451396  0.108451396
     4.610360182  0.000000000  4.610360182     0.108451396 -0.108451396  0.108451396
     4.610360182  4.610360182  0.000000000     0.108451396  0.108451396 -0.108451396

  length of vectors
     6.520033897  6.520033897  6.520033897     0.187843329  0.187843329  0.187843329


 FORCES acting on ions
    electron-ion (+dipol)            ewald-force                    non-local-force                 convergence-correction
 -----------------------------------------------------------------------------------------------
   -.147E-02 -.147E-02 -.139E-02   -.587E-03 -.587E-03 -.587E-03   0.169E-20 -.169E-20 0.000E+00   0.144E-05 0.144E-05 0.149E-05
   0.142E-02 0.142E-02 0.147E-02   0.117E-03 0.117E-03 0.117E-03   0.106E-19 -.508E-20 0.212E-20   -.453E-06 -.453E-06 -.475E-06
   0.965E-03 0.965E-03 0.102E-02   -.447E-09 -.447E-09 -.447E-09   0.104E-16 0.191E-16 0.759E-17   0.456E-06 0.456E-06 0.456E-06
   0.350E-02 0.350E-02 0.356E-02   0.470E-03 0.470E-03 0.470E-03   -.867E-17 -.104E-16 -.672E-17   -.712E-06 -.712E-06 -.712E-06
 -----------------------------------------------------------------------------------------------
   0.442E-02 0.442E-02 0.466E-02   0.654E-15 0.855E-15 -.209E-15   0.175E-17 0.867E-17 0.869E-18   0.734E-06 0.734E-06 0.757E-06
 
 
 POSITION                                       TOTAL-FORCE (eV/Angst)
 -----------------------------------------------------------------------------------
      2.30518      2.30518      2.30518        -0.000000     -0.000000     -0.000000
      6.91554      6.91554      6.91554        -0.000000     -0.000000     -0.000000
      0.00000      0.00000      0.00000         0.000000      0.000000      0.000000
      4.61036      4.61036      4.61036        -0.000000     -0.000000     -0.000000
 -----------------------------------------------------------------------------------
    total drift:                                0.004422      0.004422      0.004663


--------------------------------------------------------------------------------------------------------



  FREE ENERGIE OF THE ION-ELECTRON SYSTEM (eV)
  ---------------------------------------------------
  free  energy   TOTEN  =        -7.94322530 eV

  energy  without entropy=       -7.94321602  energy(sigma->0) =       -7.94322066
 


--------------------------------------------------------------------------------------------------------


    POTLOK:  cpu time    0.0878: real time    0.0878


--------------------------------------------------------------------------------------------------------


     LOOP+:  cpu time   12.0835: real time   12.1086
    4ORBIT:  cpu time    0.0000: real time    0.0000

 total amount of memory used by VASP MPI-rank0    62660. kBytes
=======================================================================

   base      :      30000. kBytes
   nonl-proj :       9645. kBytes
   fftplans  :       4869. kBytes
   grid      :       9037. kBytes
   one-center:         15. kBytes
   wavefun   :       9094. kBytes
 
  
  
 General timing and accounting informations for this job:
 ========================================================
  
                  Total CPU time used (sec):       12.918
                            User time (sec):       12.627
                          System time (sec):        0.291
                         Elapsed time (sec):       13.010
  
                   Maximum memory used (kb):      116688.
                   Average memory used (kb):           0.
  
                          Minor page faults:        38357
                          Major page faults:            0
                 Voluntary context switches:          395
