 running on   28 total cores
 distrk:  each k-point on    7 cores,    4 groups
 distr:  one band on    7 cores,    1 groups
 using from now: INCAR     
 vasp.5.4.4.18Apr17-6-g9f103f2a35 (build Jun 23 2019 17:35:09) complex          
  
 POSCAR found type information on POSCAR  Bi Cs Rb
 POSCAR found :  3 types and       4 ions
 scaLAPACK will be used

 ----------------------------------------------------------------------------- 
|                                                                             |
|           W    W    AA    RRRRR   N    N  II  N    N   GGGG   !!!           |
|           W    W   A  A   R    R  NN   N  II  NN   N  G    G  !!!           |
|           W    W  A    A  R    R  N N  N  II  N N  N  G       !!!           |
|           W WW W  AAAAAA  RRRRR   N  N N  II  N  N N  G  GGG   !            |
|           WW  WW  A    A  R   R   N   NN  II  N   NN  G    G                |
|           W    W  A    A  R    R  N    N  II  N    N   GGGG   !!!           |
|                                                                             |
|      You have enabled k-point parallelism (KPAR>1).                         |
|      This developmental code was originally  written by Paul Kent at ORNL,  |
|      and carefully double checked in Vienna.                                |
|      GW as well as linear response parallelism added by Martijn Marsman     |
|      and Georg Kresse.                                                      |
|      Carefully verify results versus KPAR=1.                                |
|      Report problems to Paul Kent and Vienna.                               |
|                                                                             |
 ----------------------------------------------------------------------------- 

 LDA part: xc-table for Pade appr. of Perdew
 POSCAR, INCAR and KPOINTS ok, starting setup
 FFT: planning ...
 WAVECAR not read
 entering main loop
       N       E                     dE             d eps       ncg     rms          rms(c)
DAV:   1     0.372572149113E+03    0.37257E+03   -0.19049E+04  1466   0.151E+03
DAV:   2     0.252052448827E+02   -0.34737E+03   -0.34309E+03  1799   0.342E+02
DAV:   3    -0.775032526626E+01   -0.32956E+02   -0.32705E+02  1862   0.114E+02
DAV:   4    -0.892485757963E+01   -0.11745E+01   -0.11732E+01  2345   0.231E+01
DAV:   5    -0.896856482304E+01   -0.43707E-01   -0.43701E-01  2121   0.289E+00    0.397E+00
DAV:   6    -0.807263851652E+01    0.89593E+00   -0.22504E+00  1722   0.441E+00    0.260E+00
DAV:   7    -0.793398936388E+01    0.13865E+00   -0.11336E+00  1838   0.351E+00    0.136E+00
DAV:   8    -0.794521573414E+01   -0.11226E-01   -0.15028E-01  1737   0.203E+00    0.323E-01
DAV:   9    -0.794425176970E+01    0.96396E-03   -0.62418E-02  1781   0.740E-01    0.166E-01
DAV:  10    -0.794313036420E+01    0.11214E-02   -0.92120E-03  1790   0.334E-01    0.340E-02
DAV:  11    -0.794325174206E+01   -0.12138E-03   -0.59263E-04  2117   0.926E-02    0.286E-02
DAV:  12    -0.794322603582E+01    0.25706E-04   -0.40390E-04  1820   0.486E-02    0.535E-03
DAV:  13    -0.794322520357E+01    0.83224E-06   -0.21690E-05  2094   0.164E-02    0.157E-03
DAV:  14    -0.794322533792E+01   -0.13435E-06   -0.56801E-07  2217   0.386E-03    0.684E-04
DAV:  15    -0.794322530652E+01    0.31403E-07   -0.23532E-08  1464   0.924E-04    0.379E-04
DAV:  16    -0.794322529485E+01    0.11669E-07   -0.74902E-08  1354   0.688E-04    0.439E-05
DAV:  17    -0.794322529717E+01   -0.23192E-08   -0.33370E-09  1337   0.328E-04
   1 F= -.79432253E+01 E0= -.79432207E+01  d E =-.927794E-05
