<?xml version="1.0" encoding="ISO-8859-1"?>
<modeling>
 <generator>
  <i name="program" type="string">vasp </i>
  <i name="version" type="string">5.4.4.18Apr17-6-g9f103f2a35  </i>
  <i name="subversion" type="string">(build Jun 23 2019 17:35:09) complex            parallel </i>
  <i name="platform" type="string">LinuxIFC </i>
  <i name="date" type="string">2020 01 15 </i>
  <i name="time" type="string">15:39:21 </i>
 </generator>
 <incar>
  <i type="int" name="ISTART">     0</i>
  <i type="string" name="PREC">acc</i>
  <i type="string" name="ALGO"> Normal</i>
  <i type="int" name="ISPIN">     1</i>
  <i type="int" name="NELM">   150</i>
  <i type="int" name="NELMIN">     5</i>
  <i type="int" name="IBRION">    -1</i>
  <i name="EDIFF">      0.00000001</i>
  <i type="int" name="NSW">     0</i>
  <i type="int" name="ISIF">     3</i>
  <i name="ENCUT">    520.00000000</i>
  <i type="logical" name="LREAL"> F  </i>
  <i type="logical" name="LPLANE"> T  </i>
  <i type="int" name="ISMEAR">     0</i>
  <i name="SIGMA">      0.05000000</i>
  <i type="logical" name="LWAVE"> F  </i>
  <i type="logical" name="LCHARG"> F  </i>
  <v type="int" name="KPOINT_BSE">    -1     0     0     0</v>
  <i type="int" name="NELM">   150</i>
  <i type="string" name="GGA"> PE</i>
 </incar>
 <structure name="primitive_cell" >
  <crystal>
   <varray name="basis" >
    <v>       0.00000000       4.61036018       4.61036018 </v>
    <v>       4.61036018       0.00000000       4.61036018 </v>
    <v>       4.61036018       4.61036018       0.00000000 </v>
   </varray>
   <i name="volume">    195.99029335 </i>
   <varray name="rec_basis" >
    <v>      -0.10845140       0.10845140       0.10845140 </v>
    <v>       0.10845140      -0.10845140       0.10845140 </v>
    <v>       0.10845140       0.10845140      -0.10845140 </v>
   </varray>
  </crystal>
  <varray name="positions" >
   <v>       0.25000033       0.25000033       0.25000033 </v>
   <v>       0.49999956       0.49999956       0.49999956 </v>
   <v>       0.00000000       0.00000000       0.00000000 </v>
   <v>      -0.25000011      -0.25000011      -0.25000011 </v>
  </varray>
 </structure>
 <varray name="primitive_index" >
  <v type="int" >        1 </v>
  <v type="int" >        4 </v>
  <v type="int" >        3 </v>
  <v type="int" >        2 </v>
 </varray>
 <kpoints>
  <generation param="Gamma">
   <v type="int" name="divisions">       8        8        8 </v>
   <v name="usershift">      0.00000000       0.00000000       0.00000000 </v>
   <v name="genvec1">      0.12500000       0.00000000       0.00000000 </v>
   <v name="genvec2">      0.00000000       0.12500000       0.00000000 </v>
   <v name="genvec3">      0.00000000       0.00000000       0.12500000 </v>
   <v name="shift">      0.00000000       0.00000000       0.00000000 </v>
  </generation>
  <varray name="kpointlist" >
   <v>       0.00000000       0.00000000       0.00000000 </v>
   <v>       0.12500000       0.00000000       0.00000000 </v>
   <v>       0.25000000       0.00000000       0.00000000 </v>
   <v>       0.37500000       0.00000000       0.00000000 </v>
   <v>       0.50000000       0.00000000       0.00000000 </v>
   <v>       0.12500000       0.12500000       0.00000000 </v>
   <v>       0.25000000       0.12500000       0.00000000 </v>
   <v>       0.37500000       0.12500000       0.00000000 </v>
   <v>       0.50000000       0.12500000       0.00000000 </v>
   <v>      -0.37500000       0.12500000       0.00000000 </v>
   <v>      -0.25000000       0.12500000       0.00000000 </v>
   <v>      -0.12500000       0.12500000       0.00000000 </v>
   <v>       0.25000000       0.25000000       0.00000000 </v>
   <v>       0.37500000       0.25000000       0.00000000 </v>
   <v>       0.50000000       0.25000000       0.00000000 </v>
   <v>      -0.37500000       0.25000000       0.00000000 </v>
   <v>      -0.25000000       0.25000000       0.00000000 </v>
   <v>       0.37500000       0.37500000       0.00000000 </v>
   <v>       0.50000000       0.37500000       0.00000000 </v>
   <v>      -0.37500000       0.37500000       0.00000000 </v>
   <v>       0.50000000       0.50000000       0.00000000 </v>
   <v>       0.37500000       0.25000000       0.12500000 </v>
   <v>       0.50000000       0.25000000       0.12500000 </v>
   <v>      -0.37500000       0.25000000       0.12500000 </v>
   <v>       0.50000000       0.37500000       0.12500000 </v>
   <v>      -0.37500000       0.37500000       0.12500000 </v>
   <v>      -0.25000000       0.37500000       0.12500000 </v>
   <v>      -0.37500000       0.50000000       0.12500000 </v>
   <v>      -0.25000000       0.50000000       0.25000000 </v>
  </varray>
  <varray name="weights" >
   <v>       0.00195312 </v>
   <v>       0.01562500 </v>
   <v>       0.01562500 </v>
   <v>       0.01562500 </v>
   <v>       0.00781250 </v>
   <v>       0.01171875 </v>
   <v>       0.04687500 </v>
   <v>       0.04687500 </v>
   <v>       0.04687500 </v>
   <v>       0.04687500 </v>
   <v>       0.04687500 </v>
   <v>       0.02343750 </v>
   <v>       0.01171875 </v>
   <v>       0.04687500 </v>
   <v>       0.04687500 </v>
   <v>       0.04687500 </v>
   <v>       0.02343750 </v>
   <v>       0.01171875 </v>
   <v>       0.04687500 </v>
   <v>       0.02343750 </v>
   <v>       0.00585938 </v>
   <v>       0.04687500 </v>
   <v>       0.09375000 </v>
   <v>       0.04687500 </v>
   <v>       0.04687500 </v>
   <v>       0.09375000 </v>
   <v>       0.04687500 </v>
   <v>       0.02343750 </v>
   <v>       0.01171875 </v>
  </varray>
 </kpoints>
 <parameters>
  <separator name="general" >
   <i type="string" name="SYSTEM">unknown system</i>
   <i type="logical" name="LCOMPAT"> F  </i>
  </separator>
  <separator name="electronic" >
   <i type="string" name="PREC">acc</i>
   <i name="ENMAX">    520.00000000</i>
   <i name="ENAUG">    442.89900000</i>
   <i name="EDIFF">      0.00000001</i>
   <i type="int" name="IALGO">    38</i>
   <i type="int" name="IWAVPR">    10</i>
   <i type="int" name="NBANDS">    25</i>
   <i name="NELECT">     42.00000000</i>
   <i type="int" name="TURBO">     0</i>
   <i type="int" name="IRESTART">     0</i>
   <i type="int" name="NREBOOT">     0</i>
   <i type="int" name="NMIN">     0</i>
   <i name="EREF">      0.00000000</i>
   <separator name="electronic smearing" >
    <i type="int" name="ISMEAR">     0</i>
    <i name="SIGMA">      0.05000000</i>
    <i name="KSPACING">      0.50000000</i>
    <i type="logical" name="KGAMMA"> T  </i>
   </separator>
   <separator name="electronic projectors" >
    <i type="logical" name="LREAL"> F  </i>
    <v name="ROPT">      0.00000000      0.00000000      0.00000000</v>
    <i type="int" name="LMAXPAW">  -100</i>
    <i type="int" name="LMAXMIX">     2</i>
    <i type="logical" name="NLSPLINE"> F  </i>
   </separator>
   <separator name="electronic startup" >
    <i type="int" name="ISTART">     0</i>
    <i type="int" name="ICHARG">     2</i>
    <i type="int" name="INIWAV">     1</i>
   </separator>
   <separator name="electronic spin" >
    <i type="int" name="ISPIN">     1</i>
    <i type="logical" name="LNONCOLLINEAR"> F  </i>
    <v name="MAGMOM">      1.00000000      1.00000000      1.00000000      1.00000000</v>
    <i name="NUPDOWN">     -1.00000000</i>
    <i type="logical" name="LSORBIT"> F  </i>
    <v name="SAXIS">      0.00000000      0.00000000      1.00000000</v>
    <i type="logical" name="LSPIRAL"> F  </i>
    <v name="QSPIRAL">      0.00000000      0.00000000      0.00000000</v>
    <i type="logical" name="LZEROZ"> F  </i>
   </separator>
   <separator name="electronic exchange-correlation" >
    <i type="logical" name="LASPH"> F  </i>
    <i type="logical" name="LMETAGGA"> F  </i>
   </separator>
   <separator name="electronic convergence" >
    <i type="int" name="NELM">   150</i>
    <i type="int" name="NELMDL">    -5</i>
    <i type="int" name="NELMIN">     5</i>
    <i name="ENINI">    520.00000000</i>
    <separator name="electronic convergence detail" >
     <i type="logical" name="LDIAG"> T  </i>
     <i type="logical" name="LSUBROT"> F  </i>
     <i name="WEIMIN">      0.00000000</i>
     <i name="EBREAK">      0.00000000</i>
     <i name="DEPER">      0.30000000</i>
     <i type="int" name="NRMM">     4</i>
     <i name="TIME">      0.40000000</i>
    </separator>
   </separator>
   <separator name="electronic mixer" >
    <i name="AMIX">      0.40000000</i>
    <i name="BMIX">      1.00000000</i>
    <i name="AMIN">      0.10000000</i>
    <i name="AMIX_MAG">      1.60000000</i>
    <i name="BMIX_MAG">      1.00000000</i>
    <separator name="electronic mixer details" >
     <i type="int" name="IMIX">     4</i>
     <i type="logical" name="MIXFIRST"> F  </i>
     <i type="int" name="MAXMIX">   -45</i>
     <i name="WC">    100.00000000</i>
     <i type="int" name="INIMIX">     1</i>
     <i type="int" name="MIXPRE">     1</i>
     <i type="int" name="MREMOVE">     5</i>
    </separator>
   </separator>
   <separator name="electronic dipolcorrection" >
    <i type="logical" name="LDIPOL"> F  </i>
    <i type="logical" name="LMONO"> F  </i>
    <i type="int" name="IDIPOL">     0</i>
    <i name="EPSILON">      1.00000000</i>
    <v name="DIPOL">   -100.00000000   -100.00000000   -100.00000000</v>
    <i name="EFIELD">      0.00000000</i>
   </separator>
  </separator>
  <separator name="grids" >
   <i type="int" name="NGX">    48</i>
   <i type="int" name="NGY">    48</i>
   <i type="int" name="NGZ">    48</i>
   <i type="int" name="NGXF">    96</i>
   <i type="int" name="NGYF">    96</i>
   <i type="int" name="NGZF">    96</i>
   <i type="logical" name="ADDGRID"> F  </i>
  </separator>
  <separator name="ionic" >
   <i type="int" name="NSW">     0</i>
   <i type="int" name="IBRION">    -1</i>
   <i type="int" name="MDALGO">     0</i>
   <i type="int" name="ISIF">     3</i>
   <i name="PSTRESS">      0.00000000</i>
   <i name="EDIFFG">      0.00000010</i>
   <i type="int" name="NFREE">     0</i>
   <i name="POTIM">      0.50000000</i>
   <i name="SMASS">     -3.00000000</i>
   <i name="SCALEE">      1.00000000</i>
  </separator>
  <separator name="ionic md" >
   <i name="TEBEG">      0.00010000</i>
   <i name="TEEND">      0.00010000</i>
   <i type="int" name="NBLOCK">     1</i>
   <i type="int" name="KBLOCK">     1</i>
   <i type="int" name="NPACO">   256</i>
   <i name="APACO">     16.00000000</i>
  </separator>
  <separator name="symmetry" >
   <i type="int" name="ISYM">     2</i>
   <i name="SYMPREC">      0.00001000</i>
  </separator>
  <separator name="dos" >
   <i type="int" name="LORBIT">     0</i>
   <v name="RWIGS">     -1.00000000     -1.00000000     -1.00000000</v>
   <i type="int" name="NEDOS">   301</i>
   <i name="EMIN">     10.00000000</i>
   <i name="EMAX">    -10.00000000</i>
   <i name="EFERMI">      0.00000000</i>
  </separator>
  <separator name="writing" >
   <i type="int" name="NWRITE">     2</i>
   <i type="logical" name="LWAVE"> F  </i>
   <i type="logical" name="LDOWNSAMPLE"> F  </i>
   <i type="logical" name="LCHARG"> F  </i>
   <i type="logical" name="LPARD"> F  </i>
   <i type="logical" name="LVTOT"> F  </i>
   <i type="logical" name="LVHAR"> F  </i>
   <i type="logical" name="LELF"> F  </i>
   <i type="logical" name="LOPTICS"> F  </i>
   <v name="STM">      0.00000000      0.00000000      0.00000000      0.00000000      0.00000000      0.00000000      0.00000000</v>
  </separator>
  <separator name="performance" >
   <i type="int" name="NPAR">     1</i>
   <i type="int" name="NSIM">     4</i>
   <i type="int" name="NBLK">    -1</i>
   <i type="logical" name="LPLANE"> T  </i>
   <i type="logical" name="LSCALAPACK"> T  </i>
   <i type="logical" name="LSCAAWARE"> F  </i>
   <i type="logical" name="LSCALU"> F  </i>
   <i type="logical" name="LASYNC"> F  </i>
   <i type="logical" name="LORBITALREAL"> F  </i>
  </separator>
  <separator name="miscellaneous" >
   <i type="int" name="IDIOT">     3</i>
   <i type="int" name="ISPECIAL">     0</i>
   <i type="logical" name="LMUSIC"> F  </i>
   <v name="POMASS">    208.98000000    132.90000000     85.46800000</v>
   <v name="DARWINR">      0.00000000      0.00000000      0.00000000</v>
   <v name="DARWINV">      1.00000000      1.00000000      1.00000000</v>
   <i type="logical" name="LCORR"> T  </i>
  </separator>
  <i type="logical" name="GGA_COMPAT"> T  </i>
  <i type="logical" name="LBERRY"> F  </i>
  <i type="int" name="ICORELEVEL">     0</i>
  <i type="logical" name="LDAU"> F  </i>
  <i type="int" name="I_CONSTRAINED_M">     0</i>
  <separator name="electronic exchange-correlation" >
   <i type="string" name="GGA">PE</i>
   <i type="int" name="VOSKOWN">     0</i>
   <i type="logical" name="LHFCALC"> F  </i>
   <i type="string" name="PRECFOCK"></i>
   <i type="logical" name="LSYMGRAD"> F  </i>
   <i type="logical" name="LHFONE"> F  </i>
   <i type="logical" name="LRHFCALC"> F  </i>
   <i type="logical" name="LTHOMAS"> F  </i>
   <i type="logical" name="LMODELHF"> F  </i>
   <i name="ENCUT4O">     -1.00000000</i>
   <i type="int" name="EXXOEP">     0</i>
   <i type="int" name="FOURORBIT">     0</i>
   <i name="AEXX">      0.00000000</i>
   <i name="HFALPHA">      0.00000000</i>
   <i name="MCALPHA">      0.00000000</i>
   <i name="ALDAX">      1.00000000</i>
   <i name="AGGAX">      1.00000000</i>
   <i name="ALDAC">      1.00000000</i>
   <i name="AGGAC">      1.00000000</i>
   <i type="int" name="NKREDX">     1</i>
   <i type="int" name="NKREDY">     1</i>
   <i type="int" name="NKREDZ">     1</i>
   <i type="logical" name="SHIFTRED"> F  </i>
   <i type="logical" name="ODDONLY"> F  </i>
   <i type="logical" name="EVENONLY"> F  </i>
   <i type="int" name="LMAXFOCK">     0</i>
   <i type="int" name="NMAXFOCKAE">     0</i>
   <i type="logical" name="LFOCKAEDFT"> F  </i>
   <i name="HFSCREEN">      0.00000000</i>
   <i name="HFSCREENC">      0.00000000</i>
   <i type="int" name="NBANDSGWLOW">     0</i>
  </separator>
  <separator name="vdW DFT" >
   <i type="logical" name="LUSE_VDW"> F  </i>
   <i name="Zab_VDW">     -0.84910000</i>
   <i name="PARAM1">      0.12340000</i>
   <i name="PARAM2">      1.00000000</i>
   <i name="PARAM3">      0.00000000</i>
  </separator>
  <separator name="model GW" >
   <i type="int" name="MODEL_GW">     0</i>
   <i name="MODEL_EPS0">     29.39854400</i>
   <i name="MODEL_ALPHA">      1.00000000</i>
  </separator>
  <separator name="linear response parameters" >
   <i type="logical" name="LEPSILON"> F  </i>
   <i type="logical" name="LRPA"> F  </i>
   <i type="logical" name="LNABLA"> F  </i>
   <i type="logical" name="LVEL"> F  </i>
   <i type="int" name="KINTER">     0</i>
   <i name="CSHIFT">      0.10000000</i>
   <i name="OMEGAMAX">     -1.00000000</i>
   <i name="DEG_THRESHOLD">      0.00200000</i>
   <i name="RTIME">     -0.10000000</i>
   <i name="WPLASMAI">      0.00000000</i>
   <v name="DFIELD">      0.00000000      0.00000000      0.00000000</v>
   <v name="WPLASMA">      0.00000000      0.00000000      0.00000000      0.00000000      0.00000000      0.00000000      0.00000000      0.00000000      0.00000000</v>
  </separator>
  <separator name="orbital magnetization" >
   <i type="logical" name="NUCIND"> F  </i>
   <v name="MAGPOS">      0.00000000      0.00000000      0.00000000</v>
   <i type="logical" name="LNICSALL"> T  </i>
   <i type="logical" name="ORBITALMAG"> F  </i>
   <i type="logical" name="LMAGBLOCH"> F  </i>
   <i type="logical" name="LCHIMAG"> F  </i>
   <i type="logical" name="LGAUGE"> T  </i>
   <i type="int" name="MAGATOM">     0</i>
   <v name="MAGDIPOL">      0.00000000      0.00000000      0.00000000</v>
   <v name="AVECCONST">      0.00000000      0.00000000      0.00000000</v>
  </separator>
  <separator name="response functions" >
   <i type="logical" name="LADDER"> F  </i>
   <i type="logical" name="LRPAFORCE"> F  </i>
   <i type="logical" name="LFXC"> F  </i>
   <i type="logical" name="LHARTREE"> T  </i>
   <i type="int" name="IBSE">     0</i>
   <v type="int" name="KPOINT">    -1     0     0     0</v>
   <i type="logical" name="LTCTE"> F  </i>
   <i type="logical" name="LTETE"> F  </i>
   <i type="logical" name="LTRIPLET"> F  </i>
   <i type="logical" name="LFXCEPS"> F  </i>
   <i type="logical" name="LFXHEG"> F  </i>
   <i type="int" name="NATURALO">     2</i>
   <i type="logical" name="L2ORDER"> F  </i>
   <i type="logical" name="LMP2LT"> F  </i>
   <i type="logical" name="LUSEW"> F  </i>
   <i name="ENCUTGW">     -2.00000000</i>
   <i name="ENCUTGWSOFT">     -2.00000000</i>
   <i name="ENCUTLF">     -1.00000000</i>
   <i type="int" name="LMAXMP2">    -1</i>
   <i name="SCISSOR">      0.00000000</i>
   <i type="int" name="NOMEGA">     0</i>
   <i type="int" name="NOMEGAR">     0</i>
   <i type="int" name="NBANDSGW">    -1</i>
   <i type="int" name="NBANDSO">    -1</i>
   <i type="int" name="NBANDSV">    -1</i>
   <i type="int" name="NELM">   150</i>
   <i type="int" name="NELMHF">     1</i>
   <i type="int" name="DIM">     3</i>
   <i type="int" name="ANTIRES">     0</i>
   <i name="OMEGAMAX">    -30.00000000</i>
   <i name="OMEGAMIN">    -30.00000000</i>
   <i name="OMEGATL">   -200.00000000</i>
   <i type="int" name="OMEGAGRID">   140</i>
   <i name="CSHIFT">     -0.10000000</i>
   <i type="logical" name="SELFENERGY"> F  </i>
   <i type="logical" name="LSPECTRAL"> F  </i>
   <i type="logical" name="LSPECTRALGW"> F  </i>
   <i type="logical" name="LSINGLES"> F  </i>
   <i type="logical" name="LFERMIGW"> F  </i>
   <i type="logical" name="ODDONLYGW"> F  </i>
   <i type="logical" name="EVENONLYGW"> F  </i>
   <i type="int" name="NKREDLFX">     1</i>
   <i type="int" name="NKREDLFY">     1</i>
   <i type="int" name="NKREDLFZ">     1</i>
   <i type="int" name="MAXMEM">  2800</i>
   <i type="int" name="TELESCOPE">     0</i>
   <i type="int" name="TAUPAR">     1</i>
   <i type="int" name="OMEGAPAR">    -1</i>
   <i name="LAMBDA">      1.00000000</i>
  </separator>
  <separator name="External order field" >
   <i name="OFIELD_KAPPA">      0.00000000</i>
   <v name="OFIELD_K">      0.00000000      0.00000000      0.00000000</v>
   <i name="OFIELD_Q6_NEAR">      0.00000000</i>
   <i name="OFIELD_Q6_FAR">      0.00000000</i>
   <i name="OFIELD_A">      0.00000000</i>
  </separator>
 </parameters>
 <atominfo>
  <atoms>       4 </atoms>
  <types>       3 </types>
  <array name="atoms" >
   <dimension dim="1">ion</dimension>
   <field type="string">element</field>
   <field type="int">atomtype</field>
   <set>
    <rc><c>Bi</c><c>   1</c></rc>
    <rc><c>Cs</c><c>   2</c></rc>
    <rc><c>Rb</c><c>   3</c></rc>
    <rc><c>Rb</c><c>   3</c></rc>
   </set>
  </array>
  <array name="atomtypes" >
   <dimension dim="1">type</dimension>
   <field type="int">atomspertype</field>
   <field type="string">element</field>
   <field>mass</field>
   <field>valence</field>
   <field type="string">pseudopotential</field>
   <set>
    <rc><c>   1</c><c>Bi</c><c>    208.98000000</c><c>     15.00000000</c><c>  PAW_PBE Bi_d 06Sep2000                </c></rc>
    <rc><c>   1</c><c>Cs</c><c>    132.90000000</c><c>      9.00000000</c><c>  PAW_PBE Cs_sv 08Apr2002               </c></rc>
    <rc><c>   2</c><c>Rb</c><c>     85.46800000</c><c>      9.00000000</c><c>  PAW_PBE Rb_sv 06Sep2000               </c></rc>
   </set>
  </array>
 </atominfo>
 <structure name="initialpos" >
  <crystal>
   <varray name="basis" >
    <v>       0.00000000       4.61036018       4.61036018 </v>
    <v>       4.61036018       0.00000000       4.61036018 </v>
    <v>       4.61036018       4.61036018       0.00000000 </v>
   </varray>
   <i name="volume">    195.99029335 </i>
   <varray name="rec_basis" >
    <v>      -0.10845140       0.10845140       0.10845140 </v>
    <v>       0.10845140      -0.10845140       0.10845140 </v>
    <v>       0.10845140       0.10845140      -0.10845140 </v>
   </varray>
  </crystal>
  <varray name="positions" >
   <v>       0.25000033       0.25000033       0.25000033 </v>
   <v>       0.74999989       0.74999989       0.74999989 </v>
   <v>       0.00000000       0.00000000       0.00000000 </v>
   <v>       0.49999956       0.49999956       0.49999956 </v>
  </varray>
 </structure>
 <calculation>
  <scstep>
   <time name="dav">    0.50    0.50</time>
   <time name="total">    0.58    0.59</time>
   <energy>
    <i name="alphaZ">    141.71061232 </i>
    <i name="ewald">  -2584.07013028 </i>
    <i name="hartreedc">  -1049.24223106 </i>
    <i name="XCdc">    116.89400135 </i>
    <i name="pawpsdc">   3110.29076924 </i>
    <i name="pawaedc">  -3064.67432099 </i>
    <i name="eentropy">     -0.00301226 </i>
    <i name="bandstr">   -138.22160361 </i>
    <i name="atom">   3839.88806440 </i>
    <i name="e_fr_energy">    372.57214911 </i>
    <i name="e_wo_entrp">    372.57516138 </i>
    <i name="e_0_energy">    372.57365524 </i>
   </energy>
  </scstep>
  <scstep>
   <time name="dav">    0.55    0.55</time>
   <time name="total">    0.55    0.55</time>
   <energy>
    <i name="e_fr_energy">     25.20524488 </i>
    <i name="e_wo_entrp">     25.20691007 </i>
    <i name="e_0_energy">     25.20607748 </i>
   </energy>
  </scstep>
  <scstep>
   <time name="dav">    0.57    0.57</time>
   <time name="total">    0.57    0.57</time>
   <energy>
    <i name="e_fr_energy">     -7.75032527 </i>
    <i name="e_wo_entrp">     -7.75032527 </i>
    <i name="e_0_energy">     -7.75032527 </i>
   </energy>
  </scstep>
  <scstep>
   <time name="dav">    0.67    0.68</time>
   <time name="total">    0.67    0.68</time>
   <energy>
    <i name="e_fr_energy">     -8.92485758 </i>
    <i name="e_wo_entrp">     -8.92485758 </i>
    <i name="e_0_energy">     -8.92485758 </i>
   </energy>
  </scstep>
  <scstep>
   <time name="dav">    0.62    0.62</time>
   <time name="total">    0.68    0.68</time>
   <energy>
    <i name="e_fr_energy">     -8.96856482 </i>
    <i name="e_wo_entrp">     -8.96856482 </i>
    <i name="e_0_energy">     -8.96856482 </i>
   </energy>
  </scstep>
  <scstep>
   <time name="dav">    0.53    0.53</time>
   <time name="total">    0.69    0.69</time>
   <energy>
    <i name="e_fr_energy">     -8.07263852 </i>
    <i name="e_wo_entrp">     -8.07263852 </i>
    <i name="e_0_energy">     -8.07263852 </i>
   </energy>
  </scstep>
  <scstep>
   <time name="dav">    0.57    0.57</time>
   <time name="total">    0.72    0.72</time>
   <energy>
    <i name="e_fr_energy">     -7.93398936 </i>
    <i name="e_wo_entrp">     -7.93396798 </i>
    <i name="e_0_energy">     -7.93397867 </i>
   </energy>
  </scstep>
  <scstep>
   <time name="dav">    0.54    0.55</time>
   <time name="total">    0.69    0.69</time>
   <energy>
    <i name="e_fr_energy">     -7.94521573 </i>
    <i name="e_wo_entrp">     -7.94521433 </i>
    <i name="e_0_energy">     -7.94521503 </i>
   </energy>
  </scstep>
  <scstep>
   <time name="dav">    0.55    0.55</time>
   <time name="total">    0.69    0.69</time>
   <energy>
    <i name="e_fr_energy">     -7.94425177 </i>
    <i name="e_wo_entrp">     -7.94422141 </i>
    <i name="e_0_energy">     -7.94423659 </i>
   </energy>
  </scstep>
  <scstep>
   <time name="dav">    0.55    0.55</time>
   <time name="total">    0.70    0.70</time>
   <energy>
    <i name="e_fr_energy">     -7.94313036 </i>
    <i name="e_wo_entrp">     -7.94312100 </i>
    <i name="e_0_energy">     -7.94312568 </i>
   </energy>
  </scstep>
  <scstep>
   <time name="dav">    0.65    0.65</time>
   <time name="total">    0.80    0.80</time>
   <energy>
    <i name="e_fr_energy">     -7.94325174 </i>
    <i name="e_wo_entrp">     -7.94324398 </i>
    <i name="e_0_energy">     -7.94324786 </i>
   </energy>
  </scstep>
  <scstep>
   <time name="dav">    0.55    0.55</time>
   <time name="total">    0.70    0.70</time>
   <energy>
    <i name="e_fr_energy">     -7.94322604 </i>
    <i name="e_wo_entrp">     -7.94321633 </i>
    <i name="e_0_energy">     -7.94322118 </i>
   </energy>
  </scstep>
  <scstep>
   <time name="dav">    0.62    0.62</time>
   <time name="total">    0.77    0.77</time>
   <energy>
    <i name="e_fr_energy">     -7.94322520 </i>
    <i name="e_wo_entrp">     -7.94321599 </i>
    <i name="e_0_energy">     -7.94322059 </i>
   </energy>
  </scstep>
  <scstep>
   <time name="dav">    0.66    0.66</time>
   <time name="total">    0.81    0.81</time>
   <energy>
    <i name="e_fr_energy">     -7.94322534 </i>
    <i name="e_wo_entrp">     -7.94321610 </i>
    <i name="e_0_energy">     -7.94322072 </i>
   </energy>
  </scstep>
  <scstep>
   <time name="dav">    0.49    0.49</time>
   <time name="total">    0.63    0.64</time>
   <energy>
    <i name="e_fr_energy">     -7.94322531 </i>
    <i name="e_wo_entrp">     -7.94321606 </i>
    <i name="e_0_energy">     -7.94322068 </i>
   </energy>
  </scstep>
  <scstep>
   <time name="dav">    0.46    0.46</time>
   <time name="total">    0.61    0.61</time>
   <energy>
    <i name="e_fr_energy">     -7.94322529 </i>
    <i name="e_wo_entrp">     -7.94321602 </i>
    <i name="e_0_energy">     -7.94322066 </i>
   </energy>
  </scstep>
  <scstep>
   <time name="dav">    0.44    0.44</time>
   <time name="total">    0.53    0.53</time>
   <energy>
    <i name="alphaZ">    141.71061232 </i>
    <i name="ewald">  -2584.07013028 </i>
    <i name="hartreedc">  -1052.35438231 </i>
    <i name="XCdc">    116.76927247 </i>
    <i name="pawpsdc">   3233.66745842 </i>
    <i name="pawaedc">  -3190.17047926 </i>
    <i name="eentropy">     -0.00000928 </i>
    <i name="bandstr">   -513.38363179 </i>
    <i name="atom">   3839.88806440 </i>
    <i name="e_fr_energy">     -7.94322530 </i>
    <i name="e_wo_entrp">     -7.94321602 </i>
    <i name="e_0_energy">     -7.94322066 </i>
   </energy>
  </scstep>
  <structure>
   <crystal>
    <varray name="basis" >
     <v>       0.00000000       4.61036018       4.61036018 </v>
     <v>       4.61036018       0.00000000       4.61036018 </v>
     <v>       4.61036018       4.61036018       0.00000000 </v>
    </varray>
    <i name="volume">    195.99029335 </i>
    <varray name="rec_basis" >
     <v>      -0.10845140       0.10845140       0.10845140 </v>
     <v>       0.10845140      -0.10845140       0.10845140 </v>
     <v>       0.10845140       0.10845140      -0.10845140 </v>
    </varray>
   </crystal>
   <varray name="positions" >
    <v>       0.25000033       0.25000033       0.25000033 </v>
    <v>       0.74999989       0.74999989       0.74999989 </v>
    <v>       0.00000000       0.00000000       0.00000000 </v>
    <v>       0.49999956       0.49999956       0.49999956 </v>
   </varray>
  </structure>
  <varray name="forces" >
   <v>      -0.00000000      -0.00000000      -0.00000000 </v>
   <v>      -0.00000000      -0.00000000      -0.00000000 </v>
   <v>       0.00000000       0.00000000       0.00000000 </v>
   <v>      -0.00000000      -0.00000000      -0.00000000 </v>
  </varray>
  <varray name="stress" >
   <v>      -0.00911000       0.00000000       0.00000000 </v>
   <v>       0.00000000      -0.00911000       0.00000000 </v>
   <v>       0.00000000       0.00000000      -0.00911000 </v>
  </varray>
  <energy>
   <i name="e_fr_energy">     -7.94322530 </i>
   <i name="e_wo_entrp">     -7.94322066 </i>
   <i name="e_0_energy">     -0.00000928 </i>
  </energy>
  <time name="totalsc">   12.08   12.11</time>
  <eigenvalues>
   <array>
    <dimension dim="1">band</dimension>
    <dimension dim="2">kpoint</dimension>
    <dimension dim="3">spin</dimension>
    <field>eigene</field>
    <field>occ</field>
    <set>
     <set comment="spin 1">
      <set comment="kpoint 1">
       <r>  -25.9463    1.0000 </r>
       <r>  -25.9311    1.0000 </r>
       <r>  -21.3843    1.0000 </r>
       <r>  -19.0872    1.0000 </r>
       <r>  -19.0872    1.0000 </r>
       <r>  -19.0872    1.0000 </r>
       <r>  -19.0823    1.0000 </r>
       <r>  -19.0823    1.0000 </r>
       <r>  -10.1211    1.0000 </r>
       <r>  -10.1211    1.0000 </r>
       <r>  -10.1211    1.0000 </r>
       <r>  -10.0421    1.0000 </r>
       <r>  -10.0421    1.0000 </r>
       <r>  -10.0421    1.0000 </r>
       <r>   -8.2021    1.0000 </r>
       <r>   -8.2021    1.0000 </r>
       <r>   -8.2021    1.0000 </r>
       <r>   -7.0430    1.0000 </r>
       <r>    1.7208    1.0000 </r>
       <r>    1.7208    1.0000 </r>
       <r>    1.7208    1.0000 </r>
       <r>    1.9793    0.0109 </r>
       <r>    3.6668    0.0000 </r>
       <r>    3.6668    0.0000 </r>
       <r>    4.5896    0.0000 </r>
      </set>
      <set comment="kpoint 2">
       <r>  -25.9457    1.0000 </r>
       <r>  -25.9316    1.0000 </r>
       <r>  -21.3845    1.0000 </r>
       <r>  -19.0872    1.0000 </r>
       <r>  -19.0872    1.0000 </r>
       <r>  -19.0872    1.0000 </r>
       <r>  -19.0823    1.0000 </r>
       <r>  -19.0823    1.0000 </r>
       <r>  -10.1259    1.0000 </r>
       <r>  -10.1197    1.0000 </r>
       <r>  -10.1197    1.0000 </r>
       <r>  -10.0458    1.0000 </r>
       <r>  -10.0458    1.0000 </r>
       <r>  -10.0412    1.0000 </r>
       <r>   -8.2111    1.0000 </r>
       <r>   -8.1991    1.0000 </r>
       <r>   -8.1991    1.0000 </r>
       <r>   -7.0206    1.0000 </r>
       <r>    1.2968    1.0000 </r>
       <r>    1.6763    1.0000 </r>
       <r>    1.6763    1.0000 </r>
       <r>    2.5826    0.0000 </r>
       <r>    3.8409    0.0000 </r>
       <r>    3.8409    0.0000 </r>
       <r>    4.4431    0.0000 </r>
      </set>
      <set comment="kpoint 3">
       <r>  -25.9439    1.0000 </r>
       <r>  -25.9332    1.0000 </r>
       <r>  -21.3850    1.0000 </r>
       <r>  -19.0872    1.0000 </r>
       <r>  -19.0872    1.0000 </r>
       <r>  -19.0870    1.0000 </r>
       <r>  -19.0824    1.0000 </r>
       <r>  -19.0824    1.0000 </r>
       <r>  -10.1304    1.0000 </r>
       <r>  -10.1153    1.0000 </r>
       <r>  -10.1153    1.0000 </r>
       <r>  -10.0557    1.0000 </r>
       <r>  -10.0557    1.0000 </r>
       <r>  -10.0476    1.0000 </r>
       <r>   -8.2245    1.0000 </r>
       <r>   -8.1920    1.0000 </r>
       <r>   -8.1919    1.0000 </r>
       <r>   -6.9751    1.0000 </r>
       <r>    0.9712    1.0000 </r>
       <r>    1.5897    1.0000 </r>
       <r>    1.5898    1.0000 </r>
       <r>    3.3207    0.0000 </r>
       <r>    4.2854    0.0000 </r>
       <r>    4.2854    0.0000 </r>
       <r>    4.2987    0.0000 </r>
      </set>
      <set comment="kpoint 4">
       <r>  -25.9413    1.0000 </r>
       <r>  -25.9356    1.0000 </r>
       <r>  -21.3855    1.0000 </r>
       <r>  -19.0871    1.0000 </r>
       <r>  -19.0871    1.0000 </r>
       <r>  -19.0869    1.0000 </r>
       <r>  -19.0824    1.0000 </r>
       <r>  -19.0824    1.0000 </r>
       <r>  -10.1274    1.0000 </r>
       <r>  -10.1084    1.0000 </r>
       <r>  -10.1084    1.0000 </r>
       <r>  -10.0682    1.0000 </r>
       <r>  -10.0682    1.0000 </r>
       <r>  -10.0633    1.0000 </r>
       <r>   -8.2289    1.0000 </r>
       <r>   -8.1848    1.0000 </r>
       <r>   -8.1848    1.0000 </r>
       <r>   -6.9391    1.0000 </r>
       <r>    0.8031    1.0000 </r>
       <r>    1.5231    1.0000 </r>
       <r>    1.5231    1.0000 </r>
       <r>    3.7628    0.0000 </r>
       <r>    4.6473    0.0000 </r>
       <r>    4.6581    0.0000 </r>
       <r>    4.6581    0.0000 </r>
      </set>
      <set comment="kpoint 5">
       <r>  -25.9384    1.0000 </r>
       <r>  -25.9384    1.0000 </r>
       <r>  -21.3857    1.0000 </r>
       <r>  -19.0871    1.0000 </r>
       <r>  -19.0871    1.0000 </r>
       <r>  -19.0869    1.0000 </r>
       <r>  -19.0823    1.0000 </r>
       <r>  -19.0823    1.0000 </r>
       <r>  -10.1237    1.0000 </r>
       <r>  -10.1035    1.0000 </r>
       <r>  -10.1035    1.0000 </r>
       <r>  -10.0753    1.0000 </r>
       <r>  -10.0753    1.0000 </r>
       <r>  -10.0726    1.0000 </r>
       <r>   -8.2287    1.0000 </r>
       <r>   -8.1819    1.0000 </r>
       <r>   -8.1818    1.0000 </r>
       <r>   -6.9264    1.0000 </r>
       <r>    0.7496    1.0000 </r>
       <r>    1.4997    1.0000 </r>
       <r>    1.4997    1.0000 </r>
       <r>    3.9914    0.0000 </r>
       <r>    4.6369    0.0000 </r>
       <r>    4.7095    0.0000 </r>
       <r>    4.7095    0.0000 </r>
      </set>
      <set comment="kpoint 6">
       <r>  -25.9455    1.0000 </r>
       <r>  -25.9318    1.0000 </r>
       <r>  -21.3846    1.0000 </r>
       <r>  -19.0872    1.0000 </r>
       <r>  -19.0872    1.0000 </r>
       <r>  -19.0871    1.0000 </r>
       <r>  -19.0824    1.0000 </r>
       <r>  -19.0823    1.0000 </r>
       <r>  -10.1320    1.0000 </r>
       <r>  -10.1320    1.0000 </r>
       <r>  -10.1028    1.0000 </r>
       <r>  -10.0619    1.0000 </r>
       <r>  -10.0359    1.0000 </r>
       <r>  -10.0359    1.0000 </r>
       <r>   -8.2179    1.0000 </r>
       <r>   -8.1961    1.0000 </r>
       <r>   -8.1961    1.0000 </r>
       <r>   -7.0143    1.0000 </r>
       <r>    1.1801    1.0000 </r>
       <r>    1.7321    1.0000 </r>
       <r>    1.7321    1.0000 </r>
       <r>    2.6113    0.0000 </r>
       <r>    3.7659    0.0000 </r>
       <r>    4.0376    0.0000 </r>
       <r>    4.2910    0.0000 </r>
      </set>
      <set comment="kpoint 7">
       <r>  -25.9442    1.0000 </r>
       <r>  -25.9329    1.0000 </r>
       <r>  -21.3850    1.0000 </r>
       <r>  -19.0872    1.0000 </r>
       <r>  -19.0872    1.0000 </r>
       <r>  -19.0871    1.0000 </r>
       <r>  -19.0824    1.0000 </r>
       <r>  -19.0823    1.0000 </r>
       <r>  -10.1410    1.0000 </r>
       <r>  -10.1387    1.0000 </r>
       <r>  -10.0871    1.0000 </r>
       <r>  -10.0813    1.0000 </r>
       <r>  -10.0347    1.0000 </r>
       <r>  -10.0343    1.0000 </r>
       <r>   -8.2293    1.0000 </r>
       <r>   -8.1910    1.0000 </r>
       <r>   -8.1890    1.0000 </r>
       <r>   -6.9801    1.0000 </r>
       <r>    0.9588    1.0000 </r>
       <r>    1.6445    1.0000 </r>
       <r>    1.6982    1.0000 </r>
       <r>    3.1540    0.0000 </r>
       <r>    4.0246    0.0000 </r>
       <r>    4.0591    0.0000 </r>
       <r>    4.4681    0.0000 </r>
      </set>
      <set comment="kpoint 8">
       <r>  -25.9420    1.0000 </r>
       <r>  -25.9349    1.0000 </r>
       <r>  -21.3854    1.0000 </r>
       <r>  -19.0871    1.0000 </r>
       <r>  -19.0871    1.0000 </r>
       <r>  -19.0870    1.0000 </r>
       <r>  -19.0824    1.0000 </r>
       <r>  -19.0823    1.0000 </r>
       <r>  -10.1448    1.0000 </r>
       <r>  -10.1376    1.0000 </r>
       <r>  -10.1046    1.0000 </r>
       <r>  -10.0672    1.0000 </r>
       <r>  -10.0446    1.0000 </r>
       <r>  -10.0413    1.0000 </r>
       <r>   -8.2299    1.0000 </r>
       <r>   -8.1873    1.0000 </r>
       <r>   -8.1819    1.0000 </r>
       <r>   -6.9466    1.0000 </r>
       <r>    0.8540    1.0000 </r>
       <r>    1.5114    1.0000 </r>
       <r>    1.6165    1.0000 </r>
       <r>    3.6486    0.0000 </r>
       <r>    4.2312    0.0000 </r>
       <r>    4.4774    0.0000 </r>
       <r>    4.6841    0.0000 </r>
      </set>
      <set comment="kpoint 9">
       <r>  -25.9394    1.0000 </r>
       <r>  -25.9374    1.0000 </r>
       <r>  -21.3857    1.0000 </r>
       <r>  -19.0871    1.0000 </r>
       <r>  -19.0871    1.0000 </r>
       <r>  -19.0869    1.0000 </r>
       <r>  -19.0823    1.0000 </r>
       <r>  -19.0823    1.0000 </r>
       <r>  -10.1493    1.0000 </r>
       <r>  -10.1274    1.0000 </r>
       <r>  -10.1115    1.0000 </r>
       <r>  -10.0649    1.0000 </r>
       <r>  -10.0536    1.0000 </r>
       <r>  -10.0481    1.0000 </r>
       <r>   -8.2241    1.0000 </r>
       <r>   -8.1860    1.0000 </r>
       <r>   -8.1791    1.0000 </r>
       <r>   -6.9300    1.0000 </r>
       <r>    0.8254    1.0000 </r>
       <r>    1.4488    1.0000 </r>
       <r>    1.5406    1.0000 </r>
       <r>    3.9225    0.0000 </r>
       <r>    4.4738    0.0000 </r>
       <r>    4.6886    0.0000 </r>
       <r>    4.7255    0.0000 </r>
      </set>
      <set comment="kpoint 10">
       <r>  -25.9402    1.0000 </r>
       <r>  -25.9366    1.0000 </r>
       <r>  -21.3857    1.0000 </r>
       <r>  -19.0871    1.0000 </r>
       <r>  -19.0871    1.0000 </r>
       <r>  -19.0869    1.0000 </r>
       <r>  -19.0824    1.0000 </r>
       <r>  -19.0823    1.0000 </r>
       <r>  -10.1540    1.0000 </r>
       <r>  -10.1097    1.0000 </r>
       <r>  -10.1067    1.0000 </r>
       <r>  -10.0788    1.0000 </r>
       <r>  -10.0690    1.0000 </r>
       <r>  -10.0338    1.0000 </r>
       <r>   -8.2232    1.0000 </r>
       <r>   -8.1861    1.0000 </r>
       <r>   -8.1820    1.0000 </r>
       <r>   -6.9332    1.0000 </r>
       <r>    0.8358    1.0000 </r>
       <r>    1.4946    1.0000 </r>
       <r>    1.4993    1.0000 </r>
       <r>    3.8882    0.0000 </r>
       <r>    4.4212    0.0000 </r>
       <r>    4.6487    0.0000 </r>
       <r>    4.7039    0.0000 </r>
      </set>
      <set comment="kpoint 11">
       <r>  -25.9427    1.0000 </r>
       <r>  -25.9342    1.0000 </r>
       <r>  -21.3853    1.0000 </r>
       <r>  -19.0872    1.0000 </r>
       <r>  -19.0871    1.0000 </r>
       <r>  -19.0870    1.0000 </r>
       <r>  -19.0824    1.0000 </r>
       <r>  -19.0823    1.0000 </r>
       <r>  -10.1511    1.0000 </r>
       <r>  -10.1135    1.0000 </r>
       <r>  -10.0922    1.0000 </r>
       <r>  -10.0809    1.0000 </r>
       <r>  -10.0687    1.0000 </r>
       <r>  -10.0266    1.0000 </r>
       <r>   -8.2259    1.0000 </r>
       <r>   -8.1892    1.0000 </r>
       <r>   -8.1877    1.0000 </r>
       <r>   -6.9559    1.0000 </r>
       <r>    0.8969    1.0000 </r>
       <r>    1.5100    1.0000 </r>
       <r>    1.6195    1.0000 </r>
       <r>    3.5515    0.0000 </r>
       <r>    4.2087    0.0000 </r>
       <r>    4.3877    0.0000 </r>
       <r>    4.5961    0.0000 </r>
      </set>
      <set comment="kpoint 12">
       <r>  -25.9447    1.0000 </r>
       <r>  -25.9325    1.0000 </r>
       <r>  -21.3848    1.0000 </r>
       <r>  -19.0872    1.0000 </r>
       <r>  -19.0872    1.0000 </r>
       <r>  -19.0871    1.0000 </r>
       <r>  -19.0823    1.0000 </r>
       <r>  -19.0823    1.0000 </r>
       <r>  -10.1398    1.0000 </r>
       <r>  -10.1204    1.0000 </r>
       <r>  -10.1045    1.0000 </r>
       <r>  -10.0631    1.0000 </r>
       <r>  -10.0524    1.0000 </r>
       <r>  -10.0305    1.0000 </r>
       <r>   -8.2211    1.0000 </r>
       <r>   -8.1962    1.0000 </r>
       <r>   -8.1926    1.0000 </r>
       <r>   -6.9925    1.0000 </r>
       <r>    1.0607    1.0000 </r>
       <r>    1.5781    1.0000 </r>
       <r>    1.7167    1.0000 </r>
       <r>    3.0089    0.0000 </r>
       <r>    4.0094    0.0000 </r>
       <r>    4.2141    0.0000 </r>
       <r>    4.2429    0.0000 </r>
      </set>
      <set comment="kpoint 13">
       <r>  -25.9435    1.0000 </r>
       <r>  -25.9335    1.0000 </r>
       <r>  -21.3852    1.0000 </r>
       <r>  -19.0871    1.0000 </r>
       <r>  -19.0871    1.0000 </r>
       <r>  -19.0870    1.0000 </r>
       <r>  -19.0824    1.0000 </r>
       <r>  -19.0823    1.0000 </r>
       <r>  -10.1560    1.0000 </r>
       <r>  -10.1560    1.0000 </r>
       <r>  -10.1098    1.0000 </r>
       <r>  -10.0581    1.0000 </r>
       <r>  -10.0229    1.0000 </r>
       <r>  -10.0229    1.0000 </r>
       <r>   -8.2426    1.0000 </r>
       <r>   -8.1820    1.0000 </r>
       <r>   -8.1820    1.0000 </r>
       <r>   -6.9661    1.0000 </r>
       <r>    0.8545    1.0000 </r>
       <r>    1.7572    1.0000 </r>
       <r>    1.7573    1.0000 </r>
       <r>    3.2647    0.0000 </r>
       <r>    3.7050    0.0000 </r>
       <r>    4.0620    0.0000 </r>
       <r>    4.7330    0.0000 </r>
      </set>
      <set comment="kpoint 14">
       <r>  -25.9421    1.0000 </r>
       <r>  -25.9348    1.0000 </r>
       <r>  -21.3856    1.0000 </r>
       <r>  -19.0871    1.0000 </r>
       <r>  -19.0871    1.0000 </r>
       <r>  -19.0870    1.0000 </r>
       <r>  -19.0823    1.0000 </r>
       <r>  -19.0823    1.0000 </r>
       <r>  -10.1676    1.0000 </r>
       <r>  -10.1631    1.0000 </r>
       <r>  -10.1306    1.0000 </r>
       <r>  -10.0359    1.0000 </r>
       <r>  -10.0236    1.0000 </r>
       <r>  -10.0211    1.0000 </r>
       <r>   -8.2430    1.0000 </r>
       <r>   -8.1778    1.0000 </r>
       <r>   -8.1751    1.0000 </r>
       <r>   -6.9479    1.0000 </r>
       <r>    0.8515    1.0000 </r>
       <r>    1.6538    1.0000 </r>
       <r>    1.7265    1.0000 </r>
       <r>    3.5261    0.0000 </r>
       <r>    3.7368    0.0000 </r>
       <r>    4.3833    0.0000 </r>
       <r>    4.6227    0.0000 </r>
      </set>
      <set comment="kpoint 15">
       <r>  -25.9401    1.0000 </r>
       <r>  -25.9366    1.0000 </r>
       <r>  -21.3859    1.0000 </r>
       <r>  -19.0871    1.0000 </r>
       <r>  -19.0870    1.0000 </r>
       <r>  -19.0869    1.0000 </r>
       <r>  -19.0823    1.0000 </r>
       <r>  -19.0823    1.0000 </r>
       <r>  -10.1822    1.0000 </r>
       <r>  -10.1577    1.0000 </r>
       <r>  -10.1286    1.0000 </r>
       <r>  -10.0414    1.0000 </r>
       <r>  -10.0286    1.0000 </r>
       <r>  -10.0180    1.0000 </r>
       <r>   -8.2284    1.0000 </r>
       <r>   -8.1823    1.0000 </r>
       <r>   -8.1723    1.0000 </r>
       <r>   -6.9367    1.0000 </r>
       <r>    0.9522    1.0000 </r>
       <r>    1.4375    1.0000 </r>
       <r>    1.6414    1.0000 </r>
       <r>    3.6662    0.0000 </r>
       <r>    4.1501    0.0000 </r>
       <r>    4.5042    0.0000 </r>
       <r>    4.6953    0.0000 </r>
      </set>
      <set comment="kpoint 16">
       <r>  -25.9388    1.0000 </r>
       <r>  -25.9379    1.0000 </r>
       <r>  -21.3859    1.0000 </r>
       <r>  -19.0871    1.0000 </r>
       <r>  -19.0870    1.0000 </r>
       <r>  -19.0869    1.0000 </r>
       <r>  -19.0823    1.0000 </r>
       <r>  -19.0823    1.0000 </r>
       <r>  -10.1869    1.0000 </r>
       <r>  -10.1403    1.0000 </r>
       <r>  -10.1122    1.0000 </r>
       <r>  -10.0680    1.0000 </r>
       <r>  -10.0436    1.0000 </r>
       <r>  -10.0087    1.0000 </r>
       <r>   -8.2107    1.0000 </r>
       <r>   -8.1944    1.0000 </r>
       <r>   -8.1753    1.0000 </r>
       <r>   -6.9340    1.0000 </r>
       <r>    1.0209    1.0000 </r>
       <r>    1.3346    1.0000 </r>
       <r>    1.5522    1.0000 </r>
       <r>    3.9856    0.0000 </r>
       <r>    4.0409    0.0000 </r>
       <r>    4.6725    0.0000 </r>
       <r>    4.7367    0.0000 </r>
      </set>
      <set comment="kpoint 17">
       <r>  -25.9409    1.0000 </r>
       <r>  -25.9359    1.0000 </r>
       <r>  -21.3857    1.0000 </r>
       <r>  -19.0871    1.0000 </r>
       <r>  -19.0871    1.0000 </r>
       <r>  -19.0870    1.0000 </r>
       <r>  -19.0824    1.0000 </r>
       <r>  -19.0823    1.0000 </r>
       <r>  -10.1748    1.0000 </r>
       <r>  -10.1143    1.0000 </r>
       <r>  -10.0951    1.0000 </r>
       <r>  -10.0906    1.0000 </r>
       <r>  -10.0642    1.0000 </r>
       <r>  -10.0108    1.0000 </r>
       <r>   -8.2159    1.0000 </r>
       <r>   -8.1920    1.0000 </r>
       <r>   -8.1822    1.0000 </r>
       <r>   -6.9400    1.0000 </r>
       <r>    0.9316    1.0000 </r>
       <r>    1.4868    1.0000 </r>
       <r>    1.4989    1.0000 </r>
       <r>    3.8494    0.0000 </r>
       <r>    4.2787    0.0000 </r>
       <r>    4.3190    0.0000 </r>
       <r>    4.5997    0.0000 </r>
      </set>
      <set comment="kpoint 18">
       <r>  -25.9416    1.0000 </r>
       <r>  -25.9352    1.0000 </r>
       <r>  -21.3859    1.0000 </r>
       <r>  -19.0871    1.0000 </r>
       <r>  -19.0871    1.0000 </r>
       <r>  -19.0869    1.0000 </r>
       <r>  -19.0823    1.0000 </r>
       <r>  -19.0823    1.0000 </r>
       <r>  -10.1783    1.0000 </r>
       <r>  -10.1783    1.0000 </r>
       <r>  -10.1576    1.0000 </r>
       <r>  -10.0126    1.0000 </r>
       <r>  -10.0111    1.0000 </r>
       <r>  -10.0111    1.0000 </r>
       <r>   -8.2514    1.0000 </r>
       <r>   -8.1684    1.0000 </r>
       <r>   -8.1684    1.0000 </r>
       <r>   -6.9449    1.0000 </r>
       <r>    0.8729    1.0000 </r>
       <r>    1.7796    0.9996 </r>
       <r>    1.7796    0.9996 </r>
       <r>    3.2300    0.0000 </r>
       <r>    3.6880    0.0000 </r>
       <r>    4.4570    0.0000 </r>
       <r>    4.5499    0.0000 </r>
      </set>
      <set comment="kpoint 19">
       <r>  -25.9406    1.0000 </r>
       <r>  -25.9361    1.0000 </r>
       <r>  -21.3861    1.0000 </r>
       <r>  -19.0871    1.0000 </r>
       <r>  -19.0870    1.0000 </r>
       <r>  -19.0869    1.0000 </r>
       <r>  -19.0823    1.0000 </r>
       <r>  -19.0823    1.0000 </r>
       <r>  -10.1946    1.0000 </r>
       <r>  -10.1794    1.0000 </r>
       <r>  -10.1554    1.0000 </r>
       <r>  -10.0167    1.0000 </r>
       <r>  -10.0121    1.0000 </r>
       <r>   -9.9996    1.0000 </r>
       <r>   -8.2439    1.0000 </r>
       <r>   -8.1689    1.0000 </r>
       <r>   -8.1657    1.0000 </r>
       <r>   -6.9418    1.0000 </r>
       <r>    0.9740    1.0000 </r>
       <r>    1.6369    1.0000 </r>
       <r>    1.7447    1.0000 </r>
       <r>    3.2794    0.0000 </r>
       <r>    3.7046    0.0000 </r>
       <r>    4.5169    0.0000 </r>
       <r>    4.8495    0.0000 </r>
      </set>
      <set comment="kpoint 20">
       <r>  -25.9393    1.0000 </r>
       <r>  -25.9373    1.0000 </r>
       <r>  -21.3861    1.0000 </r>
       <r>  -19.0871    1.0000 </r>
       <r>  -19.0870    1.0000 </r>
       <r>  -19.0869    1.0000 </r>
       <r>  -19.0823    1.0000 </r>
       <r>  -19.0823    1.0000 </r>
       <r>  -10.2023    1.0000 </r>
       <r>  -10.1658    1.0000 </r>
       <r>  -10.1340    1.0000 </r>
       <r>  -10.0393    1.0000 </r>
       <r>  -10.0235    1.0000 </r>
       <r>   -9.9976    1.0000 </r>
       <r>   -8.2255    1.0000 </r>
       <r>   -8.1806    1.0000 </r>
       <r>   -8.1685    1.0000 </r>
       <r>   -6.9380    1.0000 </r>
       <r>    1.1189    1.0000 </r>
       <r>    1.3404    1.0000 </r>
       <r>    1.6512    1.0000 </r>
       <r>    3.5992    0.0000 </r>
       <r>    3.8569    0.0000 </r>
       <r>    4.7458    0.0000 </r>
       <r>    4.7880    0.0000 </r>
      </set>
      <set comment="kpoint 21">
       <r>  -25.9407    1.0000 </r>
       <r>  -25.9359    1.0000 </r>
       <r>  -21.3862    1.0000 </r>
       <r>  -19.0871    1.0000 </r>
       <r>  -19.0871    1.0000 </r>
       <r>  -19.0869    1.0000 </r>
       <r>  -19.0823    1.0000 </r>
       <r>  -19.0823    1.0000 </r>
       <r>  -10.1872    1.0000 </r>
       <r>  -10.1872    1.0000 </r>
       <r>  -10.1774    1.0000 </r>
       <r>  -10.0065    1.0000 </r>
       <r>  -10.0065    1.0000 </r>
       <r>   -9.9936    1.0000 </r>
       <r>   -8.2508    1.0000 </r>
       <r>   -8.1629    1.0000 </r>
       <r>   -8.1629    1.0000 </r>
       <r>   -6.9437    1.0000 </r>
       <r>    0.9713    1.0000 </r>
       <r>    1.7880    0.9991 </r>
       <r>    1.7880    0.9991 </r>
       <r>    3.0541    0.0000 </r>
       <r>    3.5435    0.0000 </r>
       <r>    4.5187    0.0000 </r>
       <r>    5.1307    0.0000 </r>
      </set>
      <set comment="kpoint 22">
       <r>  -25.9428    1.0000 </r>
       <r>  -25.9342    1.0000 </r>
       <r>  -21.3853    1.0000 </r>
       <r>  -19.0871    1.0000 </r>
       <r>  -19.0871    1.0000 </r>
       <r>  -19.0870    1.0000 </r>
       <r>  -19.0824    1.0000 </r>
       <r>  -19.0823    1.0000 </r>
       <r>  -10.1615    1.0000 </r>
       <r>  -10.1356    1.0000 </r>
       <r>  -10.1071    1.0000 </r>
       <r>  -10.0630    1.0000 </r>
       <r>  -10.0474    1.0000 </r>
       <r>  -10.0191    1.0000 </r>
       <r>   -8.2334    1.0000 </r>
       <r>   -8.1847    1.0000 </r>
       <r>   -8.1839    1.0000 </r>
       <r>   -6.9559    1.0000 </r>
       <r>    0.8778    1.0000 </r>
       <r>    1.5885    1.0000 </r>
       <r>    1.6701    1.0000 </r>
       <r>    3.5326    0.0000 </r>
       <r>    3.8891    0.0000 </r>
       <r>    4.2945    0.0000 </r>
       <r>    4.7351    0.0000 </r>
      </set>
      <set comment="kpoint 23">
       <r>  -25.9407    1.0000 </r>
       <r>  -25.9361    1.0000 </r>
       <r>  -21.3857    1.0000 </r>
       <r>  -19.0871    1.0000 </r>
       <r>  -19.0871    1.0000 </r>
       <r>  -19.0869    1.0000 </r>
       <r>  -19.0823    1.0000 </r>
       <r>  -19.0823    1.0000 </r>
       <r>  -10.1773    1.0000 </r>
       <r>  -10.1289    1.0000 </r>
       <r>  -10.1184    1.0000 </r>
       <r>  -10.0683    1.0000 </r>
       <r>  -10.0425    1.0000 </r>
       <r>  -10.0162    1.0000 </r>
       <r>   -8.2239    1.0000 </r>
       <r>   -8.1877    1.0000 </r>
       <r>   -8.1771    1.0000 </r>
       <r>   -6.9383    1.0000 </r>
       <r>    0.9119    1.0000 </r>
       <r>    1.4769    1.0000 </r>
       <r>    1.5694    1.0000 </r>
       <r>    3.8144    0.0000 </r>
       <r>    4.1610    0.0000 </r>
       <r>    4.3960    0.0000 </r>
       <r>    4.7987    0.0000 </r>
      </set>
      <set comment="kpoint 24">
       <r>  -25.9384    1.0000 </r>
       <r>  -25.9383    1.0000 </r>
       <r>  -21.3859    1.0000 </r>
       <r>  -19.0871    1.0000 </r>
       <r>  -19.0871    1.0000 </r>
       <r>  -19.0869    1.0000 </r>
       <r>  -19.0823    1.0000 </r>
       <r>  -19.0823    1.0000 </r>
       <r>  -10.1838    1.0000 </r>
       <r>  -10.1340    1.0000 </r>
       <r>  -10.1050    1.0000 </r>
       <r>  -10.0854    1.0000 </r>
       <r>  -10.0283    1.0000 </r>
       <r>  -10.0228    1.0000 </r>
       <r>   -8.2146    1.0000 </r>
       <r>   -8.1931    1.0000 </r>
       <r>   -8.1743    1.0000 </r>
       <r>   -6.9325    1.0000 </r>
       <r>    0.9598    1.0000 </r>
       <r>    1.3791    1.0000 </r>
       <r>    1.5491    1.0000 </r>
       <r>    4.0234    0.0000 </r>
       <r>    4.1015    0.0000 </r>
       <r>    4.6141    0.0000 </r>
       <r>    4.7761    0.0000 </r>
      </set>
      <set comment="kpoint 25">
       <r>  -25.9408    1.0000 </r>
       <r>  -25.9359    1.0000 </r>
       <r>  -21.3859    1.0000 </r>
       <r>  -19.0871    1.0000 </r>
       <r>  -19.0871    1.0000 </r>
       <r>  -19.0869    1.0000 </r>
       <r>  -19.0823    1.0000 </r>
       <r>  -19.0823    1.0000 </r>
       <r>  -10.1934    1.0000 </r>
       <r>  -10.1545    1.0000 </r>
       <r>  -10.1434    1.0000 </r>
       <r>  -10.0384    1.0000 </r>
       <r>  -10.0159    1.0000 </r>
       <r>  -10.0084    1.0000 </r>
       <r>   -8.2376    1.0000 </r>
       <r>   -8.1774    1.0000 </r>
       <r>   -8.1693    1.0000 </r>
       <r>   -6.9409    1.0000 </r>
       <r>    0.9338    1.0000 </r>
       <r>    1.6076    1.0000 </r>
       <r>    1.6441    1.0000 </r>
       <r>    3.5521    0.0000 </r>
       <r>    3.8468    0.0000 </r>
       <r>    4.4439    0.0000 </r>
       <r>    4.6923    0.0000 </r>
      </set>
      <set comment="kpoint 26">
       <r>  -25.9393    1.0000 </r>
       <r>  -25.9374    1.0000 </r>
       <r>  -21.3861    1.0000 </r>
       <r>  -19.0871    1.0000 </r>
       <r>  -19.0870    1.0000 </r>
       <r>  -19.0869    1.0000 </r>
       <r>  -19.0823    1.0000 </r>
       <r>  -19.0823    1.0000 </r>
       <r>  -10.2090    1.0000 </r>
       <r>  -10.1471    1.0000 </r>
       <r>  -10.1277    1.0000 </r>
       <r>  -10.0647    1.0000 </r>
       <r>  -10.0100    1.0000 </r>
       <r>  -10.0033    1.0000 </r>
       <r>   -8.2201    1.0000 </r>
       <r>   -8.1885    1.0000 </r>
       <r>   -8.1669    1.0000 </r>
       <r>   -6.9373    1.0000 </r>
       <r>    1.0967    1.0000 </r>
       <r>    1.3694    1.0000 </r>
       <r>    1.5950    1.0000 </r>
       <r>    3.7547    0.0000 </r>
       <r>    3.9253    0.0000 </r>
       <r>    4.5063    0.0000 </r>
       <r>    4.6987    0.0000 </r>
      </set>
      <set comment="kpoint 27">
       <r>  -25.9391    1.0000 </r>
       <r>  -25.9376    1.0000 </r>
       <r>  -21.3860    1.0000 </r>
       <r>  -19.0871    1.0000 </r>
       <r>  -19.0870    1.0000 </r>
       <r>  -19.0869    1.0000 </r>
       <r>  -19.0823    1.0000 </r>
       <r>  -19.0823    1.0000 </r>
       <r>  -10.2033    1.0000 </r>
       <r>  -10.1390    1.0000 </r>
       <r>  -10.0979    1.0000 </r>
       <r>  -10.0956    1.0000 </r>
       <r>  -10.0222    1.0000 </r>
       <r>  -10.0030    1.0000 </r>
       <r>   -8.2068    1.0000 </r>
       <r>   -8.2004    1.0000 </r>
       <r>   -8.1704    1.0000 </r>
       <r>   -6.9360    1.0000 </r>
       <r>    1.0938    1.0000 </r>
       <r>    1.3244    1.0000 </r>
       <r>    1.5523    1.0000 </r>
       <r>    3.9035    0.0000 </r>
       <r>    4.1730    0.0000 </r>
       <r>    4.2475    0.0000 </r>
       <r>    4.8254    0.0000 </r>
      </set>
      <set comment="kpoint 28">
       <r>  -25.9400    1.0000 </r>
       <r>  -25.9366    1.0000 </r>
       <r>  -21.3862    1.0000 </r>
       <r>  -19.0871    1.0000 </r>
       <r>  -19.0870    1.0000 </r>
       <r>  -19.0869    1.0000 </r>
       <r>  -19.0823    1.0000 </r>
       <r>  -19.0823    1.0000 </r>
       <r>  -10.2104    1.0000 </r>
       <r>  -10.1621    1.0000 </r>
       <r>  -10.1542    1.0000 </r>
       <r>  -10.0345    1.0000 </r>
       <r>  -10.0047    1.0000 </r>
       <r>   -9.9954    1.0000 </r>
       <r>   -8.2365    1.0000 </r>
       <r>   -8.1746    1.0000 </r>
       <r>   -8.1633    1.0000 </r>
       <r>   -6.9408    1.0000 </r>
       <r>    1.0456    1.0000 </r>
       <r>    1.5764    1.0000 </r>
       <r>    1.6554    1.0000 </r>
       <r>    3.4292    0.0000 </r>
       <r>    3.6609    0.0000 </r>
       <r>    4.5920    0.0000 </r>
       <r>    4.8394    0.0000 </r>
      </set>
      <set comment="kpoint 29">
       <r>  -25.9383    1.0000 </r>
       <r>  -25.9383    1.0000 </r>
       <r>  -21.3861    1.0000 </r>
       <r>  -19.0871    1.0000 </r>
       <r>  -19.0869    1.0000 </r>
       <r>  -19.0869    1.0000 </r>
       <r>  -19.0823    1.0000 </r>
       <r>  -19.0823    1.0000 </r>
       <r>  -10.2217    1.0000 </r>
       <r>  -10.1429    1.0000 </r>
       <r>  -10.0998    1.0000 </r>
       <r>  -10.0998    1.0000 </r>
       <r>  -10.0012    1.0000 </r>
       <r>   -9.9988    1.0000 </r>
       <r>   -8.2042    1.0000 </r>
       <r>   -8.2042    1.0000 </r>
       <r>   -8.1637    1.0000 </r>
       <r>   -6.9379    1.0000 </r>
       <r>    1.2604    1.0000 </r>
       <r>    1.2605    1.0000 </r>
       <r>    1.5430    1.0000 </r>
       <r>    3.7479    0.0000 </r>
       <r>    4.1811    0.0000 </r>
       <r>    4.1811    0.0000 </r>
       <r>    4.6225    0.0000 </r>
      </set>
     </set>
    </set>
   </array>
  </eigenvalues>
  <separator name="orbital magnetization" >
   <v name="MAGDIPOLOUT">      0.00000000      0.00000000      0.00000000</v>
  </separator>
  <dos>
   <i name="efermi">      1.89817579 </i>
   <total>
    <array>
     <dimension dim="1">gridpoints</dimension>
     <dimension dim="2">spin</dimension>
     <field>energy</field>
     <field>total</field>
     <field>integrated</field>
     <set>
      <set comment="spin 1">
       <r>   -27.5001     0.0000     0.0000 </r>
       <r>   -27.3862     0.0000     0.0000 </r>
       <r>   -27.2722     0.0000     0.0000 </r>
       <r>   -27.1583     0.0000     0.0000 </r>
       <r>   -27.0443     0.0000     0.0000 </r>
       <r>   -26.9304     0.0000     0.0000 </r>
       <r>   -26.8164     0.0000     0.0000 </r>
       <r>   -26.7025     0.0000     0.0000 </r>
       <r>   -26.5886     0.0000     0.0000 </r>
       <r>   -26.4746     0.0000     0.0000 </r>
       <r>   -26.3607     0.0000     0.0000 </r>
       <r>   -26.2467     0.0000     0.0000 </r>
       <r>   -26.1328     0.0000     0.0000 </r>
       <r>   -26.0188     0.4122     0.0470 </r>
       <r>   -25.9049    28.6448     3.3110 </r>
       <r>   -25.7909     6.0459     3.9999 </r>
       <r>   -25.6770     0.0006     4.0000 </r>
       <r>   -25.5630     0.0000     4.0000 </r>
       <r>   -25.4491     0.0000     4.0000 </r>
       <r>   -25.3351     0.0000     4.0000 </r>
       <r>   -25.2212     0.0000     4.0000 </r>
       <r>   -25.1072     0.0000     4.0000 </r>
       <r>   -24.9933     0.0000     4.0000 </r>
       <r>   -24.8793     0.0000     4.0000 </r>
       <r>   -24.7654     0.0000     4.0000 </r>
       <r>   -24.6514     0.0000     4.0000 </r>
       <r>   -24.5375     0.0000     4.0000 </r>
       <r>   -24.4235     0.0000     4.0000 </r>
       <r>   -24.3096     0.0000     4.0000 </r>
       <r>   -24.1956     0.0000     4.0000 </r>
       <r>   -24.0817     0.0000     4.0000 </r>
       <r>   -23.9677     0.0000     4.0000 </r>
       <r>   -23.8538     0.0000     4.0000 </r>
       <r>   -23.7398     0.0000     4.0000 </r>
       <r>   -23.6259     0.0000     4.0000 </r>
       <r>   -23.5119     0.0000     4.0000 </r>
       <r>   -23.3980     0.0000     4.0000 </r>
       <r>   -23.2840     0.0000     4.0000 </r>
       <r>   -23.1701     0.0000     4.0000 </r>
       <r>   -23.0561     0.0000     4.0000 </r>
       <r>   -22.9422     0.0000     4.0000 </r>
       <r>   -22.8282     0.0000     4.0000 </r>
       <r>   -22.7143     0.0000     4.0000 </r>
       <r>   -22.6003     0.0000     4.0000 </r>
       <r>   -22.4864     0.0000     4.0000 </r>
       <r>   -22.3724     0.0000     4.0000 </r>
       <r>   -22.2585     0.0000     4.0000 </r>
       <r>   -22.1445     0.0000     4.0000 </r>
       <r>   -22.0306     0.0000     4.0000 </r>
       <r>   -21.9166     0.0000     4.0000 </r>
       <r>   -21.8027     0.0000     4.0000 </r>
       <r>   -21.6887     0.0000     4.0000 </r>
       <r>   -21.5748     0.0000     4.0000 </r>
       <r>   -21.4608     0.2942     4.0335 </r>
       <r>   -21.3469    14.8647     5.7273 </r>
       <r>   -21.2329     2.3927     6.0000 </r>
       <r>   -21.1190     0.0001     6.0000 </r>
       <r>   -21.0050     0.0000     6.0000 </r>
       <r>   -20.8911     0.0000     6.0000 </r>
       <r>   -20.7771     0.0000     6.0000 </r>
       <r>   -20.6632     0.0000     6.0000 </r>
       <r>   -20.5492     0.0000     6.0000 </r>
       <r>   -20.4353     0.0000     6.0000 </r>
       <r>   -20.3214     0.0000     6.0000 </r>
       <r>   -20.2074     0.0000     6.0000 </r>
       <r>   -20.0935     0.0000     6.0000 </r>
       <r>   -19.9795     0.0000     6.0000 </r>
       <r>   -19.8656     0.0000     6.0000 </r>
       <r>   -19.7516     0.0000     6.0000 </r>
       <r>   -19.6377     0.0000     6.0000 </r>
       <r>   -19.5237     0.0000     6.0000 </r>
       <r>   -19.4098     0.0000     6.0000 </r>
       <r>   -19.2958     0.0000     6.0000 </r>
       <r>   -19.1819     0.2784     6.0317 </r>
       <r>   -19.0679    59.9951    12.8681 </r>
       <r>   -18.9540    27.4756    15.9989 </r>
       <r>   -18.8400     0.0094    16.0000 </r>
       <r>   -18.7261     0.0000    16.0000 </r>
       <r>   -18.6121     0.0000    16.0000 </r>
       <r>   -18.4982     0.0000    16.0000 </r>
       <r>   -18.3842     0.0000    16.0000 </r>
       <r>   -18.2703     0.0000    16.0000 </r>
       <r>   -18.1563     0.0000    16.0000 </r>
       <r>   -18.0424     0.0000    16.0000 </r>
       <r>   -17.9284     0.0000    16.0000 </r>
       <r>   -17.8145     0.0000    16.0000 </r>
       <r>   -17.7005     0.0000    16.0000 </r>
       <r>   -17.5866     0.0000    16.0000 </r>
       <r>   -17.4726     0.0000    16.0000 </r>
       <r>   -17.3587     0.0000    16.0000 </r>
       <r>   -17.2447     0.0000    16.0000 </r>
       <r>   -17.1308     0.0000    16.0000 </r>
       <r>   -17.0168     0.0000    16.0000 </r>
       <r>   -16.9029     0.0000    16.0000 </r>
       <r>   -16.7889     0.0000    16.0000 </r>
       <r>   -16.6750     0.0000    16.0000 </r>
       <r>   -16.5610     0.0000    16.0000 </r>
       <r>   -16.4471     0.0000    16.0000 </r>
       <r>   -16.3331     0.0000    16.0000 </r>
       <r>   -16.2192     0.0000    16.0000 </r>
       <r>   -16.1052     0.0000    16.0000 </r>
       <r>   -15.9913     0.0000    16.0000 </r>
       <r>   -15.8773     0.0000    16.0000 </r>
       <r>   -15.7634     0.0000    16.0000 </r>
       <r>   -15.6494     0.0000    16.0000 </r>
       <r>   -15.5355     0.0000    16.0000 </r>
       <r>   -15.4215     0.0000    16.0000 </r>
       <r>   -15.3076     0.0000    16.0000 </r>
       <r>   -15.1936     0.0000    16.0000 </r>
       <r>   -15.0797     0.0000    16.0000 </r>
       <r>   -14.9657     0.0000    16.0000 </r>
       <r>   -14.8518     0.0000    16.0000 </r>
       <r>   -14.7378     0.0000    16.0000 </r>
       <r>   -14.6239     0.0000    16.0000 </r>
       <r>   -14.5099     0.0000    16.0000 </r>
       <r>   -14.3960     0.0000    16.0000 </r>
       <r>   -14.2820     0.0000    16.0000 </r>
       <r>   -14.1681     0.0000    16.0000 </r>
       <r>   -14.0542     0.0000    16.0000 </r>
       <r>   -13.9402     0.0000    16.0000 </r>
       <r>   -13.8263     0.0000    16.0000 </r>
       <r>   -13.7123     0.0000    16.0000 </r>
       <r>   -13.5984     0.0000    16.0000 </r>
       <r>   -13.4844     0.0000    16.0000 </r>
       <r>   -13.3705     0.0000    16.0000 </r>
       <r>   -13.2565     0.0000    16.0000 </r>
       <r>   -13.1426     0.0000    16.0000 </r>
       <r>   -13.0286     0.0000    16.0000 </r>
       <r>   -12.9147     0.0000    16.0000 </r>
       <r>   -12.8007     0.0000    16.0000 </r>
       <r>   -12.6868     0.0000    16.0000 </r>
       <r>   -12.5728     0.0000    16.0000 </r>
       <r>   -12.4589     0.0000    16.0000 </r>
       <r>   -12.3449     0.0000    16.0000 </r>
       <r>   -12.2310     0.0000    16.0000 </r>
       <r>   -12.1170     0.0000    16.0000 </r>
       <r>   -12.0031     0.0000    16.0000 </r>
       <r>   -11.8891     0.0000    16.0000 </r>
       <r>   -11.7752     0.0000    16.0000 </r>
       <r>   -11.6612     0.0000    16.0000 </r>
       <r>   -11.5473     0.0000    16.0000 </r>
       <r>   -11.4333     0.0000    16.0000 </r>
       <r>   -11.3194     0.0000    16.0000 </r>
       <r>   -11.2054     0.0000    16.0000 </r>
       <r>   -11.0915     0.0000    16.0000 </r>
       <r>   -10.9775     0.0000    16.0000 </r>
       <r>   -10.8636     0.0000    16.0000 </r>
       <r>   -10.7496     0.0000    16.0000 </r>
       <r>   -10.6357     0.0000    16.0000 </r>
       <r>   -10.5217     0.0000    16.0000 </r>
       <r>   -10.4078     0.0000    16.0000 </r>
       <r>   -10.2938     0.0369    16.0042 </r>
       <r>   -10.1799    11.5910    17.3250 </r>
       <r>   -10.0659    52.9266    23.3559 </r>
       <r>    -9.9520    39.6703    27.8763 </r>
       <r>    -9.8380     1.0854    28.0000 </r>
       <r>    -9.7241     0.0000    28.0000 </r>
       <r>    -9.6101     0.0000    28.0000 </r>
       <r>    -9.4962     0.0000    28.0000 </r>
       <r>    -9.3822     0.0000    28.0000 </r>
       <r>    -9.2683     0.0000    28.0000 </r>
       <r>    -9.1543     0.0000    28.0000 </r>
       <r>    -9.0404     0.0000    28.0000 </r>
       <r>    -8.9264     0.0000    28.0000 </r>
       <r>    -8.8125     0.0000    28.0000 </r>
       <r>    -8.6985     0.0000    28.0000 </r>
       <r>    -8.5846     0.0000    28.0000 </r>
       <r>    -8.4706     0.0000    28.0000 </r>
       <r>    -8.3567     0.0034    28.0004 </r>
       <r>    -8.2427     7.3417    28.8370 </r>
       <r>    -8.1288    42.6431    33.6961 </r>
       <r>    -8.0148     2.6667    34.0000 </r>
       <r>    -7.9009     0.0001    34.0000 </r>
       <r>    -7.7869     0.0000    34.0000 </r>
       <r>    -7.6730     0.0000    34.0000 </r>
       <r>    -7.5591     0.0000    34.0000 </r>
       <r>    -7.4451     0.0000    34.0000 </r>
       <r>    -7.3312     0.0000    34.0000 </r>
       <r>    -7.2172     0.0000    34.0000 </r>
       <r>    -7.1033     0.0061    34.0007 </r>
       <r>    -6.9893     2.4194    34.2764 </r>
       <r>    -6.8754    14.5680    35.9364 </r>
       <r>    -6.7614     0.5582    36.0000 </r>
       <r>    -6.6475     0.0000    36.0000 </r>
       <r>    -6.5335     0.0000    36.0000 </r>
       <r>    -6.4196     0.0000    36.0000 </r>
       <r>    -6.3056     0.0000    36.0000 </r>
       <r>    -6.1917     0.0000    36.0000 </r>
       <r>    -6.0777     0.0000    36.0000 </r>
       <r>    -5.9638     0.0000    36.0000 </r>
       <r>    -5.8498     0.0000    36.0000 </r>
       <r>    -5.7359     0.0000    36.0000 </r>
       <r>    -5.6219     0.0000    36.0000 </r>
       <r>    -5.5080     0.0000    36.0000 </r>
       <r>    -5.3940     0.0000    36.0000 </r>
       <r>    -5.2801     0.0000    36.0000 </r>
       <r>    -5.1661     0.0000    36.0000 </r>
       <r>    -5.0522     0.0000    36.0000 </r>
       <r>    -4.9382     0.0000    36.0000 </r>
       <r>    -4.8243     0.0000    36.0000 </r>
       <r>    -4.7103     0.0000    36.0000 </r>
       <r>    -4.5964     0.0000    36.0000 </r>
       <r>    -4.4824     0.0000    36.0000 </r>
       <r>    -4.3685     0.0000    36.0000 </r>
       <r>    -4.2545     0.0000    36.0000 </r>
       <r>    -4.1406     0.0000    36.0000 </r>
       <r>    -4.0266     0.0000    36.0000 </r>
       <r>    -3.9127     0.0000    36.0000 </r>
       <r>    -3.7987     0.0000    36.0000 </r>
       <r>    -3.6848     0.0000    36.0000 </r>
       <r>    -3.5708     0.0000    36.0000 </r>
       <r>    -3.4569     0.0000    36.0000 </r>
       <r>    -3.3429     0.0000    36.0000 </r>
       <r>    -3.2290     0.0000    36.0000 </r>
       <r>    -3.1150     0.0000    36.0000 </r>
       <r>    -3.0011     0.0000    36.0000 </r>
       <r>    -2.8871     0.0000    36.0000 </r>
       <r>    -2.7732     0.0000    36.0000 </r>
       <r>    -2.6592     0.0000    36.0000 </r>
       <r>    -2.5453     0.0000    36.0000 </r>
       <r>    -2.4313     0.0000    36.0000 </r>
       <r>    -2.3174     0.0000    36.0000 </r>
       <r>    -2.2034     0.0000    36.0000 </r>
       <r>    -2.0895     0.0000    36.0000 </r>
       <r>    -1.9755     0.0000    36.0000 </r>
       <r>    -1.8616     0.0000    36.0000 </r>
       <r>    -1.7476     0.0000    36.0000 </r>
       <r>    -1.6337     0.0000    36.0000 </r>
       <r>    -1.5197     0.0000    36.0000 </r>
       <r>    -1.4058     0.0000    36.0000 </r>
       <r>    -1.2919     0.0000    36.0000 </r>
       <r>    -1.1779     0.0000    36.0000 </r>
       <r>    -1.0640     0.0000    36.0000 </r>
       <r>    -0.9500     0.0000    36.0000 </r>
       <r>    -0.8361     0.0000    36.0000 </r>
       <r>    -0.7221     0.0000    36.0000 </r>
       <r>    -0.6082     0.0000    36.0000 </r>
       <r>    -0.4942     0.0000    36.0000 </r>
       <r>    -0.3803     0.0000    36.0000 </r>
       <r>    -0.2663     0.0000    36.0000 </r>
       <r>    -0.1524     0.0000    36.0000 </r>
       <r>    -0.0384     0.0000    36.0000 </r>
       <r>     0.0755     0.0000    36.0000 </r>
       <r>     0.1895     0.0000    36.0000 </r>
       <r>     0.3034     0.0000    36.0000 </r>
       <r>     0.4174     0.0000    36.0000 </r>
       <r>     0.5313     0.0000    36.0000 </r>
       <r>     0.6453     0.0002    36.0000 </r>
       <r>     0.7592     0.1583    36.0181 </r>
       <r>     0.8732     4.0111    36.4751 </r>
       <r>     0.9871     7.2939    37.3062 </r>
       <r>     1.1011     3.9150    37.7524 </r>
       <r>     1.2150     1.6686    37.9425 </r>
       <r>     1.3290     1.8554    38.1539 </r>
       <r>     1.4429     4.6245    38.6809 </r>
       <r>     1.5569    10.1143    39.8334 </r>
       <r>     1.6708    12.8077    41.2928 </r>
       <r>     1.7848     5.6280    41.9341 </r>
       <r>     1.8987     0.5783    42.0000 </r>
       <r>     2.0127     0.0283    42.0032 </r>
       <r>     2.1266     0.0059    42.0039 </r>
       <r>     2.2406     0.0000    42.0039 </r>
       <r>     2.3545     0.0000    42.0039 </r>
       <r>     2.4685     0.0002    42.0039 </r>
       <r>     2.5824     0.1791    42.0243 </r>
       <r>     2.6964     0.2988    42.0584 </r>
       <r>     2.8103     0.0018    42.0586 </r>
       <r>     2.9243     0.0035    42.0590 </r>
       <r>     3.0382     0.3583    42.0998 </r>
       <r>     3.1522     0.5497    42.1625 </r>
       <r>     3.2661     1.0129    42.2779 </r>
       <r>     3.3801     0.9402    42.3850 </r>
       <r>     3.4940     0.7345    42.4687 </r>
       <r>     3.6080     3.3604    42.8516 </r>
       <r>     3.7219     3.7001    43.2732 </r>
       <r>     3.8359     5.0428    43.8479 </r>
       <r>     3.9498     6.1131    44.5444 </r>
       <r>     4.0638     4.7570    45.0865 </r>
       <r>     4.1777     4.3798    45.5856 </r>
       <r>     4.2917     5.3977    46.2006 </r>
       <r>     4.4056     4.2533    46.6853 </r>
       <r>     4.5196     7.1051    47.4949 </r>
       <r>     4.6335     5.2921    48.0980 </r>
       <r>     4.7475    10.4495    49.2887 </r>
       <r>     4.8614     5.5223    49.9179 </r>
       <r>     4.9754     0.6173    49.9883 </r>
       <r>     5.0893     0.0126    49.9897 </r>
       <r>     5.2032     0.0884    49.9998 </r>
       <r>     5.3172     0.0021    50.0000 </r>
       <r>     5.4311     0.0000    50.0000 </r>
       <r>     5.5451     0.0000    50.0000 </r>
       <r>     5.6590     0.0000    50.0000 </r>
       <r>     5.7730     0.0000    50.0000 </r>
       <r>     5.8869     0.0000    50.0000 </r>
       <r>     6.0009     0.0000    50.0000 </r>
       <r>     6.1148     0.0000    50.0000 </r>
       <r>     6.2288     0.0000    50.0000 </r>
       <r>     6.3427     0.0000    50.0000 </r>
       <r>     6.4567     0.0000    50.0000 </r>
       <r>     6.5706     0.0000    50.0000 </r>
       <r>     6.6846     0.0000    50.0000 </r>
      </set>
     </set>
    </array>
   </total>
  </dos>
 </calculation>
 <structure name="finalpos" >
  <crystal>
   <varray name="basis" >
    <v>       0.00000000       4.61036018       4.61036018 </v>
    <v>       4.61036018       0.00000000       4.61036018 </v>
    <v>       4.61036018       4.61036018       0.00000000 </v>
   </varray>
   <i name="volume">    195.99029335 </i>
   <varray name="rec_basis" >
    <v>      -0.10845140       0.10845140       0.10845140 </v>
    <v>       0.10845140      -0.10845140       0.10845140 </v>
    <v>       0.10845140       0.10845140      -0.10845140 </v>
   </varray>
  </crystal>
  <varray name="positions" >
   <v>       0.25000033       0.25000033       0.25000033 </v>
   <v>       0.74999989       0.74999989       0.74999989 </v>
   <v>       0.00000000       0.00000000       0.00000000 </v>
   <v>       0.49999956       0.49999956       0.49999956 </v>
  </varray>
 </structure>
</modeling>
