   4   4   0   0
  0.2969890E+02  0.5517874E-09  0.5517874E-09  0.5517874E-09  0.5000000E-15
  1.000000000000000E-004
  CAR 
 unknown system                          
      9.37785340    -30.80056217  301      2.29640766      1.00000000
    -30.801  0.0000E+00  0.0000E+00
    -30.667  0.0000E+00  0.0000E+00
    -30.533  0.0000E+00  0.0000E+00
    -30.399  0.0000E+00  0.0000E+00
    -30.265  0.0000E+00  0.0000E+00
    -30.131  0.0000E+00  0.0000E+00
    -29.997  0.0000E+00  0.0000E+00
    -29.863  0.0000E+00  0.0000E+00
    -29.729  0.0000E+00  0.0000E+00
    -29.595  0.0000E+00  0.0000E+00
    -29.461  0.0000E+00  0.0000E+00
    -29.327  0.0000E+00  0.0000E+00
    -29.193  0.4055E-08  0.5431E-09
    -29.059  0.1165E+00  0.1560E-01
    -28.926  0.1354E+02  0.1829E+01
    -28.792  0.1274E+01  0.2000E+01
    -28.658  0.1863E-05  0.2000E+01
    -28.524  0.0000E+00  0.2000E+01
    -28.390  0.0000E+00  0.2000E+01
    -28.256  0.0000E+00  0.2000E+01
    -28.122  0.0000E+00  0.2000E+01
    -27.988  0.0000E+00  0.2000E+01
    -27.854  0.0000E+00  0.2000E+01
    -27.720  0.0000E+00  0.2000E+01
    -27.586  0.0000E+00  0.2000E+01
    -27.452  0.0000E+00  0.2000E+01
    -27.318  0.0000E+00  0.2000E+01
    -27.185  0.0000E+00  0.2000E+01
    -27.051  0.0000E+00  0.2000E+01
    -26.917  0.0000E+00  0.2000E+01
    -26.783  0.0000E+00  0.2000E+01
    -26.649  0.0000E+00  0.2000E+01
    -26.515  0.0000E+00  0.2000E+01
    -26.381  0.0000E+00  0.2000E+01
    -26.247  0.0000E+00  0.2000E+01
    -26.113  0.0000E+00  0.2000E+01
    -25.979  0.0000E+00  0.2000E+01
    -25.845  0.0000E+00  0.2000E+01
    -25.711  0.0000E+00  0.2000E+01
    -25.577  0.0000E+00  0.2000E+01
    -25.443  0.0000E+00  0.2000E+01
    -25.310  0.0000E+00  0.2000E+01
    -25.176  0.0000E+00  0.2000E+01
    -25.042  0.0000E+00  0.2000E+01
    -24.908  0.0000E+00  0.2000E+01
    -24.774  0.0000E+00  0.2000E+01
    -24.640  0.0000E+00  0.2000E+01
    -24.506  0.0000E+00  0.2000E+01
    -24.372  0.0000E+00  0.2000E+01
    -24.238  0.0000E+00  0.2000E+01
    -24.104  0.0000E+00  0.2000E+01
    -23.970  0.0000E+00  0.2000E+01
    -23.836  0.0000E+00  0.2000E+01
    -23.702  0.0000E+00  0.2000E+01
    -23.568  0.0000E+00  0.2000E+01
    -23.435  0.0000E+00  0.2000E+01
    -23.301  0.0000E+00  0.2000E+01
    -23.167  0.0000E+00  0.2000E+01
    -23.033  0.0000E+00  0.2000E+01
    -22.899  0.0000E+00  0.2000E+01
    -22.765  0.0000E+00  0.2000E+01
    -22.631  0.0000E+00  0.2000E+01
    -22.497  0.0000E+00  0.2000E+01
    -22.363  0.1180E-05  0.2000E+01
    -22.229  0.3182E+01  0.2426E+01
    -22.095  0.8413E+02  0.1369E+02
    -21.961  0.2285E+01  0.1400E+02
    -21.827  0.5039E-06  0.1400E+02
    -21.693  0.0000E+00  0.1400E+02
    -21.560  0.0000E+00  0.1400E+02
    -21.426  0.0000E+00  0.1400E+02
    -21.292  0.0000E+00  0.1400E+02
    -21.158  0.0000E+00  0.1400E+02
    -21.024  0.0000E+00  0.1400E+02
    -20.890  0.0000E+00  0.1400E+02
    -20.756  0.0000E+00  0.1400E+02
    -20.622  0.0000E+00  0.1400E+02
    -20.488  0.0000E+00  0.1400E+02
    -20.354  0.0000E+00  0.1400E+02
    -20.220  0.0000E+00  0.1400E+02
    -20.086  0.0000E+00  0.1400E+02
    -19.952  0.0000E+00  0.1400E+02
    -19.818  0.0000E+00  0.1400E+02
    -19.685  0.0000E+00  0.1400E+02
    -19.551  0.0000E+00  0.1400E+02
    -19.417  0.0000E+00  0.1400E+02
    -19.283  0.0000E+00  0.1400E+02
    -19.149  0.0000E+00  0.1400E+02
    -19.015  0.0000E+00  0.1400E+02
    -18.881  0.0000E+00  0.1400E+02
    -18.747  0.0000E+00  0.1400E+02
    -18.613  0.0000E+00  0.1400E+02
    -18.479  0.0000E+00  0.1400E+02
    -18.345  0.0000E+00  0.1400E+02
    -18.211  0.0000E+00  0.1400E+02
    -18.077  0.0000E+00  0.1400E+02
    -17.943  0.0000E+00  0.1400E+02
    -17.810  0.0000E+00  0.1400E+02
    -17.676  0.0000E+00  0.1400E+02
    -17.542  0.0000E+00  0.1400E+02
    -17.408  0.0000E+00  0.1400E+02
    -17.274  0.0000E+00  0.1400E+02
    -17.140  0.0000E+00  0.1400E+02
    -17.006  0.0000E+00  0.1400E+02
    -16.872  0.0000E+00  0.1400E+02
    -16.738  0.0000E+00  0.1400E+02
    -16.604  0.0000E+00  0.1400E+02
    -16.470  0.0000E+00  0.1400E+02
    -16.336  0.0000E+00  0.1400E+02
    -16.202  0.0000E+00  0.1400E+02
    -16.068  0.0000E+00  0.1400E+02
    -15.935  0.0000E+00  0.1400E+02
    -15.801  0.0000E+00  0.1400E+02
    -15.667  0.0000E+00  0.1400E+02
    -15.533  0.0000E+00  0.1400E+02
    -15.399  0.0000E+00  0.1400E+02
    -15.265  0.0000E+00  0.1400E+02
    -15.131  0.0000E+00  0.1400E+02
    -14.997  0.0000E+00  0.1400E+02
    -14.863  0.0000E+00  0.1400E+02
    -14.729  0.0000E+00  0.1400E+02
    -14.595  0.0000E+00  0.1400E+02
    -14.461  0.0000E+00  0.1400E+02
    -14.327  0.0000E+00  0.1400E+02
    -14.193  0.0000E+00  0.1400E+02
    -14.060  0.0000E+00  0.1400E+02
    -13.926  0.0000E+00  0.1400E+02
    -13.792  0.0000E+00  0.1400E+02
    -13.658  0.0000E+00  0.1400E+02
    -13.524  0.0000E+00  0.1400E+02
    -13.390  0.0000E+00  0.1400E+02
    -13.256  0.0000E+00  0.1400E+02
    -13.122  0.0000E+00  0.1400E+02
    -12.988  0.0000E+00  0.1400E+02
    -12.854  0.0000E+00  0.1400E+02
    -12.720  0.1675E-07  0.1400E+02
    -12.586  0.3478E+00  0.1405E+02
    -12.452  0.4025E+02  0.1944E+02
    -12.318  0.4198E+01  0.2000E+02
    -12.185  0.8956E-05  0.2000E+02
    -12.051  0.0000E+00  0.2000E+02
    -11.917  0.0000E+00  0.2000E+02
    -11.783  0.0000E+00  0.2000E+02
    -11.649  0.0000E+00  0.2000E+02
    -11.515  0.0000E+00  0.2000E+02
    -11.381  0.0000E+00  0.2000E+02
    -11.247  0.0000E+00  0.2000E+02
    -11.113  0.0000E+00  0.2000E+02
    -10.979  0.0000E+00  0.2000E+02
    -10.845  0.0000E+00  0.2000E+02
    -10.711  0.0000E+00  0.2000E+02
    -10.577  0.0000E+00  0.2000E+02
    -10.443  0.0000E+00  0.2000E+02
    -10.310  0.0000E+00  0.2000E+02
    -10.176  0.0000E+00  0.2000E+02
    -10.042  0.0000E+00  0.2000E+02
     -9.908  0.0000E+00  0.2000E+02
     -9.774  0.0000E+00  0.2000E+02
     -9.640  0.0000E+00  0.2000E+02
     -9.506  0.0000E+00  0.2000E+02
     -9.372  0.0000E+00  0.2000E+02
     -9.238  0.0000E+00  0.2000E+02
     -9.104  0.0000E+00  0.2000E+02
     -8.970  0.0000E+00  0.2000E+02
     -8.836  0.0000E+00  0.2000E+02
     -8.702  0.0000E+00  0.2000E+02
     -8.569  0.0000E+00  0.2000E+02
     -8.435  0.0000E+00  0.2000E+02
     -8.301  0.0000E+00  0.2000E+02
     -8.167  0.0000E+00  0.2000E+02
     -8.033  0.0000E+00  0.2000E+02
     -7.899  0.0000E+00  0.2000E+02
     -7.765  0.0000E+00  0.2000E+02
     -7.631  0.0000E+00  0.2000E+02
     -7.497  0.0000E+00  0.2000E+02
     -7.363  0.0000E+00  0.2000E+02
     -7.229  0.0000E+00  0.2000E+02
     -7.095  0.0000E+00  0.2000E+02
     -6.961  0.0000E+00  0.2000E+02
     -6.827  0.0000E+00  0.2000E+02
     -6.694  0.0000E+00  0.2000E+02
     -6.560  0.0000E+00  0.2000E+02
     -6.426  0.0000E+00  0.2000E+02
     -6.292  0.0000E+00  0.2000E+02
     -6.158  0.0000E+00  0.2000E+02
     -6.024  0.7478E-08  0.2000E+02
     -5.890  0.4964E-02  0.2000E+02
     -5.756  0.5252E+00  0.2007E+02
     -5.622  0.2172E+01  0.2036E+02
     -5.488  0.8357E+01  0.2148E+02
     -5.354  0.3873E+01  0.2200E+02
     -5.220  0.1056E-02  0.2200E+02
     -5.086  0.1009E-11  0.2200E+02
     -4.952  0.0000E+00  0.2200E+02
     -4.819  0.0000E+00  0.2200E+02
     -4.685  0.0000E+00  0.2200E+02
     -4.551  0.0000E+00  0.2200E+02
     -4.417  0.0000E+00  0.2200E+02
     -4.283  0.0000E+00  0.2200E+02
     -4.149  0.0000E+00  0.2200E+02
     -4.015  0.0000E+00  0.2200E+02
     -3.881  0.0000E+00  0.2200E+02
     -3.747  0.0000E+00  0.2200E+02
     -3.613  0.0000E+00  0.2200E+02
     -3.479  0.0000E+00  0.2200E+02
     -3.345  0.0000E+00  0.2200E+02
     -3.211  0.0000E+00  0.2200E+02
     -3.077  0.0000E+00  0.2200E+02
     -2.944  0.0000E+00  0.2200E+02
     -2.810  0.0000E+00  0.2200E+02
     -2.676  0.0000E+00  0.2200E+02
     -2.542  0.0000E+00  0.2200E+02
     -2.408  0.0000E+00  0.2200E+02
     -2.274  0.0000E+00  0.2200E+02
     -2.140  0.0000E+00  0.2200E+02
     -2.006  0.0000E+00  0.2200E+02
     -1.872  0.0000E+00  0.2200E+02
     -1.738  0.0000E+00  0.2200E+02
     -1.604  0.0000E+00  0.2200E+02
     -1.470  0.0000E+00  0.2200E+02
     -1.336  0.0000E+00  0.2200E+02
     -1.202  0.0000E+00  0.2200E+02
     -1.069  0.0000E+00  0.2200E+02
     -0.935  0.0000E+00  0.2200E+02
     -0.801  0.0000E+00  0.2200E+02
     -0.667  0.0000E+00  0.2200E+02
     -0.533  0.0000E+00  0.2200E+02
     -0.399  0.3561E-08  0.2200E+02
     -0.265  0.6044E-02  0.2200E+02
     -0.131  0.2132E+00  0.2203E+02
      0.003  0.1359E+01  0.2221E+02
      0.137  0.1569E+01  0.2242E+02
      0.271  0.4902E+01  0.2308E+02
      0.405  0.4238E+01  0.2365E+02
      0.539  0.6994E+00  0.2374E+02
      0.673  0.1210E+01  0.2390E+02
      0.806  0.2794E+01  0.2428E+02
      0.940  0.9238E+00  0.2440E+02
      1.074  0.2471E+01  0.2473E+02
      1.208  0.3013E+01  0.2513E+02
      1.342  0.3614E+01  0.2562E+02
      1.476  0.6276E+01  0.2646E+02
      1.610  0.5285E+01  0.2717E+02
      1.744  0.3421E+01  0.2762E+02
      1.878  0.1662E+01  0.2785E+02
      2.012  0.9226E+00  0.2797E+02
      2.146  0.2174E+00  0.2800E+02
      2.280  0.3054E-02  0.2800E+02
      2.414  0.9285E-09  0.2800E+02
      2.548  0.1137E-08  0.2800E+02
      2.681  0.1652E-02  0.2800E+02
      2.815  0.2711E-01  0.2800E+02
      2.949  0.4010E-03  0.2800E+02
      3.083  0.3015E-10  0.2800E+02
      3.217  0.1907E-06  0.2800E+02
      3.351  0.3668E-01  0.2801E+02
      3.485  0.1985E+00  0.2804E+02
      3.619  0.2422E+00  0.2807E+02
      3.753  0.3343E+00  0.2811E+02
      3.887  0.1219E+01  0.2828E+02
      4.021  0.1035E+01  0.2841E+02
      4.155  0.2417E+01  0.2874E+02
      4.289  0.4193E+01  0.2930E+02
      4.423  0.6954E+00  0.2939E+02
      4.556  0.4333E+01  0.2997E+02
      4.690  0.2822E+01  0.3035E+02
      4.824  0.1241E+01  0.3052E+02
      4.958  0.9494E+00  0.3064E+02
      5.092  0.1681E+01  0.3087E+02
      5.226  0.2514E+01  0.3121E+02
      5.360  0.3072E+01  0.3162E+02
      5.494  0.5646E+01  0.3237E+02
      5.628  0.2167E+01  0.3266E+02
      5.762  0.3114E+01  0.3308E+02
      5.896  0.3752E+01  0.3358E+02
      6.030  0.2309E+01  0.3389E+02
      6.164  0.1904E+01  0.3415E+02
      6.298  0.9453E+00  0.3427E+02
      6.431  0.3563E+01  0.3475E+02
      6.565  0.3306E+01  0.3519E+02
      6.699  0.2341E+01  0.3551E+02
      6.833  0.1153E+01  0.3566E+02
      6.967  0.8213E+00  0.3577E+02
      7.101  0.1203E+01  0.3593E+02
      7.235  0.3255E+00  0.3598E+02
      7.369  0.8222E-01  0.3599E+02
      7.503  0.9209E-02  0.3599E+02
      7.637  0.7944E-01  0.3600E+02
      7.771  0.6968E-03  0.3600E+02
      7.905  0.2492E-10  0.3600E+02
      8.039  0.0000E+00  0.3600E+02
      8.173  0.0000E+00  0.3600E+02
      8.306  0.0000E+00  0.3600E+02
      8.440  0.0000E+00  0.3600E+02
      8.574  0.0000E+00  0.3600E+02
      8.708  0.0000E+00  0.3600E+02
      8.842  0.0000E+00  0.3600E+02
      8.976  0.0000E+00  0.3600E+02
      9.110  0.0000E+00  0.3600E+02
      9.244  0.0000E+00  0.3600E+02
      9.378  0.0000E+00  0.3600E+02
