    4    4    1    1
  0.2969890E+02  0.5517874E-09  0.5517874E-09  0.5517874E-09  0.5000000E-15
  1.000000000000000E-004
  CAR 
 unknown system                          
     28     29     18
 
  0.0000000E+00  0.0000000E+00  0.0000000E+00  0.1953125E-02
    1      -28.974271   1.000000
    2      -22.169547   1.000000
    3      -22.169543   1.000000
    4      -22.169540   1.000000
    5      -22.159701   1.000000
    6      -22.159697   1.000000
    7      -22.159694   1.000000
    8      -12.492178   1.000000
    9      -12.492175   1.000000
   10      -12.492171   1.000000
   11       -5.846301   1.000000
   12        2.081604   1.000000
   13        2.081616   1.000000
   14        2.081628   1.000000
   15        2.737442   0.000000
   16        4.861972   0.000000
   17        4.861976   0.000000
   18        4.861980   0.000000
 
  0.1250000E+00  0.0000000E+00  0.0000000E+00  0.1562500E-01
    1      -28.974232   1.000000
    2      -22.169290   1.000000
    3      -22.169200   1.000000
    4      -22.169195   1.000000
    5      -22.160098   1.000000
    6      -22.160093   1.000000
    7      -22.160049   1.000000
    8      -12.495356   1.000000
    9      -12.492367   1.000000
   10      -12.492362   1.000000
   11       -5.801580   1.000000
   12        1.368833   1.000000
   13        1.991636   1.000000
   14        1.991652   1.000000
   15        3.386658   0.000000
   16        4.966194   0.000000
   17        5.021475   0.000000
   18        5.021482   0.000000
 
  0.2500000E+00  0.0000000E+00  0.0000000E+00  0.1562500E-01
    1      -28.974139   1.000000
    2      -22.168441   1.000000
    3      -22.168178   1.000000
    4      -22.168173   1.000000
    5      -22.161212   1.000000
    6      -22.161207   1.000000
    7      -22.161101   1.000000
    8      -12.502861   1.000000
    9      -12.492788   1.000000
   10      -12.492783   1.000000
   11       -5.688748   1.000000
   12        0.556140   1.000000
   13        1.803909   1.000000
   14        1.803925   1.000000
   15        3.792802   0.000000
   16        5.380953   0.000000
   17        5.380966   0.000000
   18        5.641911   0.000000
 
  0.3750000E+00  0.0000000E+00  0.0000000E+00  0.1562500E-01
    1      -28.974046   1.000000
    2      -22.166963   1.000000
    3      -22.166623   1.000000
    4      -22.166618   1.000000
    5      -22.162854   1.000000
    6      -22.162850   1.000000
    7      -22.162789   1.000000
    8      -12.510252   1.000000
    9      -12.493204   1.000000
   10      -12.493199   1.000000
   11       -5.567866   1.000000
   12       -0.005381   1.000000
   13        1.645014   1.000000
   14        1.645031   1.000000
   15        3.873395   0.000000
   16        5.728484   0.000000
   17        5.728503   0.000000
   18        6.617501   0.000000
 
  0.5000000E+00  0.0000000E+00  0.0000000E+00  0.7812500E-02
    1      -28.974008   1.000000
    2      -22.165387   1.000000
    3      -22.164782   1.000000
    4      -22.164777   1.000000
    5      -22.164734   1.000000
    6      -22.164729   1.000000
    7      -22.164444   1.000000
    8      -12.513264   1.000000
    9      -12.493371   1.000000
   10      -12.493366   1.000000
   11       -5.515000   1.000000
   12       -0.207421   1.000000
   13        1.585344   1.000000
   14        1.585361   1.000000
   15        3.897068   0.000000
   16        5.878875   0.000000
   17        5.878897   0.000000
   18        6.624055   0.000000
 
  0.0000000E+00  0.1250000E+00  0.0000000E+00  0.1171875E-01
    1      -28.974219   1.000000
    2      -22.169840   1.000000
    3      -22.169838   1.000000
    4      -22.167751   1.000000
    5      -22.161547   1.000000
    6      -22.159502   1.000000
    7      -22.159500   1.000000
    8      -12.495268   1.000000
    9      -12.492964   1.000000
   10      -12.492964   1.000000
   11       -5.788036   1.000000
   12        1.298018   1.000000
   13        1.922825   1.000000
   14        1.922825   1.000000
   15        3.571954   0.000000
   16        4.576120   0.000000
   17        5.265735   0.000000
   18        5.265738   0.000000
 
  0.1250000E+00  0.1250000E+00  0.0000000E+00  0.4687500E-01
    1      -28.974144   1.000000
    2      -22.169758   1.000000
    3      -22.169717   1.000000
    4      -22.165880   1.000000
    5      -22.163495   1.000000
    6      -22.159724   1.000000
    7      -22.159720   1.000000
    8      -12.500687   1.000000
    9      -12.493678   1.000000
   10      -12.493388   1.000000
   11       -5.701338   1.000000
   12        0.721284   1.000000
   13        1.731380   1.000000
   14        1.759646   1.000000
   15        4.017371   0.000000
   16        4.621705   0.000000
   17        5.673476   0.000000
   18        5.688890   0.000000
 
  0.2500000E+00  0.1250000E+00  0.0000000E+00  0.4687500E-01
    1      -28.974051   1.000000
    2      -22.168918   1.000000
    3      -22.168834   1.000000
    4      -22.165652   1.000000
    5      -22.163831   1.000000
    6      -22.160755   1.000000
    7      -22.160703   1.000000
    8      -12.507544   1.000000
    9      -12.494186   1.000000
   10      -12.494106   1.000000
   11       -5.586377   1.000000
   12        0.186632   1.000000
   13        1.492634   1.000000
   14        1.611600   1.000000
   15        4.131796   0.000000
   16        5.246291   0.000000
   17        5.876989   0.000000
   18        5.966220   0.000000
 
  0.3750000E+00  0.1250000E+00  0.0000000E+00  0.4687500E-01
    1      -28.973994   1.000000
    2      -22.167972   1.000000
    3      -22.167296   1.000000
    4      -22.167058   1.000000
    5      -22.162465   1.000000
    6      -22.162265   1.000000
    7      -22.161859   1.000000
    8      -12.511596   1.000000
    9      -12.495126   1.000000
   10      -12.493974   1.000000
   11       -5.511424   1.000000
   12       -0.093743   1.000000
   13        1.336609   1.000000
   14        1.547424   1.000000
   15        4.225536   0.000000
   16        5.414474   0.000000
   17        6.064823   0.000000
   18        6.458485   0.000000
 
  0.5000000E+00  0.1250000E+00  0.0000000E+00  0.4687500E-01
    1      -28.974008   1.000000
    2      -22.169366   1.000000
    3      -22.165339   1.000000
    4      -22.165237   1.000000
    5      -22.164459   1.000000
    6      -22.164174   1.000000
    7      -22.160281   1.000000
    8      -12.510649   1.000000
    9      -12.495607   1.000000
   10      -12.493381   1.000000
   11       -5.527274   1.000000
   12       -0.034955   1.000000
   13        1.318156   1.000000
   14        1.592066   1.000000
   15        4.276216   0.000000
   16        5.449364   0.000000
   17        5.874133   0.000000
   18        6.564115   0.000000
 
 -0.3750000E+00  0.1250000E+00  0.0000000E+00  0.4687500E-01
    1      -28.974081   1.000000
    2      -22.170162   1.000000
    3      -22.166518   1.000000
    4      -22.166150   1.000000
    5      -22.163269   1.000000
    6      -22.163075   1.000000
    7      -22.159373   1.000000
    8      -12.505361   1.000000
    9      -12.495211   1.000000
   10      -12.492666   1.000000
   11       -5.622732   1.000000
   12        0.340005   1.000000
   13        1.453620   1.000000
   14        1.731568   1.000000
   15        4.229985   0.000000
   16        5.389611   0.000000
   17        5.471832   0.000000
   18        5.785698   0.000000
 
 -0.2500000E+00  0.1250000E+00  0.0000000E+00  0.2343750E-01
    1      -28.974175   1.000000
    2      -22.170095   1.000000
    3      -22.168133   1.000000
    4      -22.167905   1.000000
    5      -22.161420   1.000000
    6      -22.161304   1.000000
    7      -22.159309   1.000000
    8      -12.499021   1.000000
    9      -12.493880   1.000000
   10      -12.492253   1.000000
   11       -5.735414   1.000000
   12        0.895870   1.000000
   13        1.730881   1.000000
   14        1.902847   1.000000
   15        3.894257   0.000000
   16        4.920027   0.000000
   17        5.116807   0.000000
   18        5.558564   0.000000
 
  0.0000000E+00  0.2500000E+00  0.0000000E+00  0.1171875E-01
    1      -28.974093   1.000000
    2      -22.170524   1.000000
    3      -22.170522   1.000000
    4      -22.165993   1.000000
    5      -22.163404   1.000000
    6      -22.159025   1.000000
    7      -22.159022   1.000000
    8      -12.501959   1.000000
    9      -12.494820   1.000000
   10      -12.494819   1.000000
   11       -5.653829   1.000000
   12        0.576209   1.000000
   13        1.637756   1.000000
   14        1.637757   1.000000
   15        4.072243   0.000000
   16        4.224611   0.000000
   17        6.250810   0.000000
   18        6.253177   0.000000
 
  0.1250000E+00  0.2500000E+00  0.0000000E+00  0.4687500E-01
    1      -28.974018   1.000000
    2      -22.170471   1.000000
    3      -22.170449   1.000000
    4      -22.168295   1.000000
    5      -22.161152   1.000000
    6      -22.159229   1.000000
    7      -22.159193   1.000000
    8      -12.505952   1.000000
    9      -12.496159   1.000000
   10      -12.495540   1.000000
   11       -5.571589   1.000000
   12        0.311428   1.000000
   13        1.370209   1.000000
   14        1.519159   1.000000
   15        4.045375   0.000000
   16        4.501405   0.000000
   17        6.043589   0.000000
   18        6.511151   0.000000
 
  0.2500000E+00  0.2500000E+00  0.0000000E+00  0.4687500E-01
    1      -28.973961   1.000000
    2      -22.170389   1.000000
    3      -22.169485   1.000000
    4      -22.169185   1.000000
    5      -22.160364   1.000000
    6      -22.160187   1.000000
    7      -22.159408   1.000000
    8      -12.508377   1.000000
    9      -12.498543   1.000000
   10      -12.495416   1.000000
   11       -5.501865   1.000000
   12        0.161697   1.000000
   13        0.997998   1.000000
   14        1.462432   1.000000
   15        4.188986   0.000000
   16        5.273616   0.000000
   17        5.770772   0.000000
   18        6.553978   0.000000
 
  0.3750000E+00  0.2500000E+00  0.0000000E+00  0.4687500E-01
    1      -28.973957   1.000000
    2      -22.171278   1.000000
    3      -22.167770   1.000000
    4      -22.167504   1.000000
    5      -22.162216   1.000000
    6      -22.161849   1.000000
    7      -22.158430   1.000000
    8      -12.507909   1.000000
    9      -12.500566   1.000000
   10      -12.494531   1.000000
   11       -5.488189   1.000000
   12        0.164080   1.000000
   13        0.804838   1.000000
   14        1.492182   1.000000
   15        4.506042   0.000000
   16        5.504051   0.000000
   17        6.287668   0.000000
   18        6.353999   0.000000
 
  0.5000000E+00  0.2500000E+00  0.0000000E+00  0.2343750E-01
    1      -28.974006   1.000000
    2      -22.171231   1.000000
    3      -22.165578   1.000000
    4      -22.165306   1.000000
    5      -22.164391   1.000000
    6      -22.163933   1.000000
    7      -22.158411   1.000000
    8      -12.506696   1.000000
    9      -12.499171   1.000000
   10      -12.493385   1.000000
   11       -5.539418   1.000000
   12        0.221239   1.000000
   13        0.986113   1.000000
   14        1.598821   1.000000
   15        4.818986   0.000000
   16        5.443213   0.000000
   17        5.569876   0.000000
   18        5.869158   0.000000
 
  0.0000000E+00  0.3750000E+00  0.0000000E+00  0.1171875E-01
    1      -28.973968   1.000000
    2      -22.171211   1.000000
    3      -22.171208   1.000000
    4      -22.170432   1.000000
    5      -22.159053   1.000000
    6      -22.158541   1.000000
    7      -22.158539   1.000000
    8      -12.507673   1.000000
    9      -12.496685   1.000000
   10      -12.496685   1.000000
   11       -5.531927   1.000000
   12        0.235669   1.000000
   13        1.428212   1.000000
   14        1.428212   1.000000
   15        3.696436   0.000000
   16        4.034882   0.000000
   17        6.766446   0.000000
   18        7.003422   0.000000
 
  0.1250000E+00  0.3750000E+00  0.0000000E+00  0.4687500E-01
    1      -28.973930   1.000000
    2      -22.171849   1.000000
    3      -22.170967   1.000000
    4      -22.170814   1.000000
    5      -22.158880   1.000000
    6      -22.158820   1.000000
    7      -22.157807   1.000000
    8      -12.508549   1.000000
    9      -12.498589   1.000000
   10      -12.496874   1.000000
   11       -5.490994   1.000000
   12        0.217482   1.000000
   13        1.116657   1.000000
   14        1.385208   1.000000
   15        3.788764   0.000000
   16        4.213950   0.000000
   17        6.856340   0.000000
   18        7.095235   0.000000
 
  0.2500000E+00  0.3750000E+00  0.0000000E+00  0.2343750E-01
    1      -28.973926   1.000000
    2      -22.172140   1.000000
    3      -22.169756   1.000000
    4      -22.169509   1.000000
    5      -22.160204   1.000000
    6      -22.159974   1.000000
    7      -22.157577   1.000000
    8      -12.506286   1.000000
    9      -12.502550   1.000000
   10      -12.495981   1.000000
   11       -5.473050   1.000000
   12        0.382086   1.000000
   13        0.611230   1.000000
   14        1.409551   1.000000
   15        4.056964   0.000000
   16        5.106397   0.000000
   17        6.623139   0.000000
   18        6.790737   0.000000
 
  0.0000000E+00  0.5000000E+00  0.0000000E+00  0.5859375E-02
    1      -28.973922   1.000000
    2      -22.172274   1.000000
    3      -22.171499   1.000000
    4      -22.171496   1.000000
    5      -22.158342   1.000000
    6      -22.158340   1.000000
    7      -22.157258   1.000000
    8      -12.509789   1.000000
    9      -12.497485   1.000000
   10      -12.497485   1.000000
   11       -5.486100   1.000000
   12        0.162910   1.000000
   13        1.355139   1.000000
   14        1.355140   1.000000
   15        3.562585   0.000000
   16        3.792128   0.000000
   17        7.297084   0.000000
   18        7.551562   0.000000
 
  0.1250000E+00  0.1250000E+00  0.1250000E+00  0.4687500E-01
    1      -28.974067   1.000000
    2      -22.170732   1.000000
    3      -22.168669   1.000000
    4      -22.165825   1.000000
    5      -22.163620   1.000000
    6      -22.160909   1.000000
    7      -22.158843   1.000000
    8      -12.504286   1.000000
    9      -12.496087   1.000000
   10      -12.493632   1.000000
   11       -5.616715   1.000000
   12        0.414219   1.000000
   13        1.393410   1.000000
   14        1.646234   1.000000
   15        4.507033   0.000000
   16        4.564850   0.000000
   17        5.693615   0.000000
   18        6.075632   0.000000
 
  0.2500000E+00  0.1250000E+00  0.1250000E+00  0.9375000E-01
    1      -28.973993   1.000000
    2      -22.170817   1.000000
    3      -22.168011   1.000000
    4      -22.166959   1.000000
    5      -22.162713   1.000000
    6      -22.161512   1.000000
    7      -22.158886   1.000000
    8      -12.507864   1.000000
    9      -12.497928   1.000000
   10      -12.494374   1.000000
   11       -5.528328   1.000000
   12        0.164562   1.000000
   13        1.099791   1.000000
   14        1.497480   1.000000
   15        4.606657   0.000000
   16        5.250793   0.000000
   17        5.450356   0.000000
   18        6.425259   0.000000
 
  0.3750000E+00  0.1250000E+00  0.1250000E+00  0.4687500E-01
    1      -28.973962   1.000000
    2      -22.170284   1.000000
    3      -22.169341   1.000000
    4      -22.164954   1.000000
    5      -22.164769   1.000000
    6      -22.159844   1.000000
    7      -22.159832   1.000000
    8      -12.509380   1.000000
    9      -12.498483   1.000000
   10      -12.494845   1.000000
   11       -5.490483   1.000000
   12        0.066645   1.000000
   13        0.994858   1.000000
   14        1.434974   1.000000
   15        4.724757   0.000000
   16        5.037509   0.000000
   17        6.330022   0.000000
   18        6.355705   0.000000
 
  0.1250000E+00  0.2500000E+00  0.1250000E+00  0.4687500E-01
    1      -28.973960   1.000000
    2      -22.171479   1.000000
    3      -22.170171   1.000000
    4      -22.169305   1.000000
    5      -22.160457   1.000000
    6      -22.159233   1.000000
    7      -22.158373   1.000000
    8      -12.507335   1.000000
    9      -12.498315   1.000000
   10      -12.496324   1.000000
   11       -5.513130   1.000000
   12        0.248184   1.000000
   13        1.146125   1.000000
   14        1.328124   1.000000
   15        4.238122   0.000000
   16        4.506818   0.000000
   17        5.998198   0.000000
   18        7.031740   0.000000
 
  0.2500000E+00  0.2500000E+00  0.1250000E+00  0.9375000E-01
    1      -28.973930   1.000000
    2      -22.171929   1.000000
    3      -22.170761   1.000000
    4      -22.167405   1.000000
    5      -22.162398   1.000000
    6      -22.158544   1.000000
    7      -22.158112   1.000000
    8      -12.506473   1.000000
    9      -12.501341   1.000000
   10      -12.496685   1.000000
   11       -5.475846   1.000000
   12        0.331116   1.000000
   13        0.761040   1.000000
   14        1.245517   1.000000
   15        4.478786   0.000000
   16        5.158241   0.000000
   17        5.805482   0.000000
   18        6.587912   0.000000
 
  0.3750000E+00  0.2500000E+00  0.1250000E+00  0.4687500E-01
    1      -28.973943   1.000000
    2      -22.171855   1.000000
    3      -22.169834   1.000000
    4      -22.165070   1.000000
    5      -22.164706   1.000000
    6      -22.159660   1.000000
    7      -22.157975   1.000000
    8      -12.505817   1.000000
    9      -12.502294   1.000000
   10      -12.495657   1.000000
   11       -5.482275   1.000000
   12        0.321943   1.000000
   13        0.695858   1.000000
   14        1.332393   1.000000
   15        4.815593   0.000000
   16        5.442578   0.000000
   17        5.497867   0.000000
   18        6.423084   0.000000
 
  0.1250000E+00  0.3750000E+00  0.1250000E+00  0.2343750E-01
    1      -28.973918   1.000000
    2      -22.172423   1.000000
    3      -22.171337   1.000000
    4      -22.169568   1.000000
    5      -22.160266   1.000000
    6      -22.158179   1.000000
    7      -22.157414   1.000000
    8      -12.507952   1.000000
    9      -12.499250   1.000000
   10      -12.497834   1.000000
   11       -5.475693   1.000000
   12        0.273636   1.000000
   13        1.059369   1.000000
   14        1.153420   1.000000
   15        4.121323   0.000000
   16        4.295487   0.000000
   17        6.775852   0.000000
   18        6.836365   0.000000
 
  0.2500000E+00  0.2500000E+00  0.2500000E+00  0.1171875E-01
    1      -28.973916   1.000000
    2      -22.172538   1.000000
    3      -22.171217   1.000000
    4      -22.164920   1.000000
    5      -22.164920   1.000000
    6      -22.157813   1.000000
    7      -22.157778   1.000000
    8      -12.503577   1.000000
    9      -12.503577   1.000000
   10      -12.498215   1.000000
   11       -5.465200   1.000000
   12        0.594804   1.000000
   13        0.594805   1.000000
   14        0.987723   1.000000
   15        5.006016   0.000000
   16        5.353019   0.000000
   17        5.353020   0.000000
   18        6.022803   0.000000
