       N       E                     dE             d eps       ncg     rms          rms(c)
DAV:   1     0.229475950496E+03    0.22948E+03   -0.13522E+04  1044   0.147E+03
DAV:   2     0.765520638312E+01   -0.22182E+03   -0.21748E+03  1064   0.404E+02
DAV:   3    -0.955166200815E+01   -0.17207E+02   -0.17070E+02  1710   0.114E+02
DAV:   4    -0.100635550530E+02   -0.51189E+00   -0.51070E+00  1466   0.149E+01
DAV:   5    -0.100784822888E+02   -0.14927E-01   -0.14924E-01  1722   0.199E+00    0.406E+00
DAV:   6    -0.963178828699E+01    0.44669E+00   -0.91727E-01  1144   0.364E+00    0.304E+00
DAV:   7    -0.955929634625E+01    0.72492E-01   -0.46031E-01  1390   0.231E+00    0.181E+00
DAV:   8    -0.955970573666E+01   -0.40939E-03   -0.43068E-02  1462   0.138E+00    0.392E-01
DAV:   9    -0.955890121746E+01    0.80452E-03   -0.44599E-03  1294   0.371E-01    0.132E-01
DAV:  10    -0.955901695822E+01   -0.11574E-03   -0.36301E-04  1616   0.139E-01    0.271E-02
DAV:  11    -0.955902171949E+01   -0.47613E-05   -0.27153E-05  1724   0.262E-02    0.160E-02
DAV:  12    -0.955902167137E+01    0.48123E-07   -0.35081E-06  1402   0.215E-02    0.323E-03
DAV:  13    -0.955902168024E+01   -0.88721E-08   -0.29009E-07  1418   0.391E-03    0.862E-04
DAV:  14    -0.955902166803E+01    0.12214E-07   -0.11468E-08  1126   0.739E-04    0.382E-04
DAV:  15    -0.955902168133E+01   -0.13300E-07   -0.97086E-10   662   0.278E-04    0.182E-04
DAV:  16    -0.955902169139E+01   -0.10062E-07   -0.39613E-10   622   0.169E-04    0.456E-05
DAV:  17    -0.955902169269E+01   -0.12951E-08   -0.12657E-10   610   0.978E-05
   1 F= -.95590217E+01 E0= -.95590217E+01  d E =-.159845E-11
