 vasp.5.4.4.18Apr17-6-g9f103f2a35 (build Jun 23 2019 17:35:09) complex          
  
 executed on             LinuxIFC date 2020.01.15  15:43:23
 running on   28 total cores
 distrk:  each k-point on    7 cores,    4 groups
 distr:  one band on NCORES_PER_BAND=   7 cores,    1 groups


--------------------------------------------------------------------------------------------------------


 INCAR:
 POTCAR:    PAW_PBE K_sv 06Sep2000                
 POTCAR:    PAW_PBE Na_pv 19Sep2006               
 POTCAR:    PAW_PBE Sb 06Sep2000                  

 ----------------------------------------------------------------------------- 
|                                                                             |
|           W    W    AA    RRRRR   N    N  II  N    N   GGGG   !!!           |
|           W    W   A  A   R    R  NN   N  II  NN   N  G    G  !!!           |
|           W    W  A    A  R    R  N N  N  II  N N  N  G       !!!           |
|           W WW W  AAAAAA  RRRRR   N  N N  II  N  N N  G  GGG   !            |
|           WW  WW  A    A  R   R   N   NN  II  N   NN  G    G                |
|           W    W  A    A  R    R  N    N  II  N    N   GGGG   !!!           |
|                                                                             |
|      You have enabled k-point parallelism (KPAR>1).                         |
|      This developmental code was originally  written by Paul Kent at ORNL,  |
|      and carefully double checked in Vienna.                                |
|      GW as well as linear response parallelism added by Martijn Marsman     |
|      and Georg Kresse.                                                      |
|      Carefully verify results versus KPAR=1.                                |
|      Report problems to Paul Kent and Vienna.                               |
|                                                                             |
 ----------------------------------------------------------------------------- 

 POTCAR:    PAW_PBE K_sv 06Sep2000                
   VRHFIN =K:  3s3p4s                                                           
   LEXCH  = PE                                                                  
   EATOM  =   775.0067 eV,   56.9614 Ry                                         
                                                                                
   TITEL  = PAW_PBE K_sv 06Sep2000                                              
   LULTRA =        F    use ultrasoft PP ?                                      
   IUNSCR =        1    unscreen: 0-lin 1-nonlin 2-no                           
   RPACOR =    2.200    partial core radius                                     
   POMASS =   39.098; ZVAL   =    9.000    mass and valenz                      
   RCORE  =    2.300    outmost cutoff radius                                   
   RWIGS  =    3.000; RWIGS  =    1.588    wigner-seitz radius (au A)           
   ENMAX  =  259.264; ENMIN  =  194.448 eV                                      
   RCLOC  =    2.005    cutoff for local pot                                    
   LCOR   =        T    correct aug charges                                     
   LPAW   =        T    paw PP                                                  
   EAUG   =  427.853                                                            
   DEXC   =    0.000                                                            
   RMAX   =    2.358    core radius for proj-oper                               
   RAUG   =    1.300    factor for augmentation sphere                          
   RDEP   =    2.372    radius for radial grids                                 
   RDEPT  =    2.002    core radius for aug-charge                              
                                                                                
   Atomic configuration                                                         
    7 entries                                                                   
     n  l   j            E        occ.                                          
     1  0  0.50     -3522.0595   2.0000                                         
     2  0  0.50      -353.3851   2.0000                                         
     2  1  1.50      -280.0935   6.0000                                         
     3  0  0.50       -35.3419   2.0000                                         
     4  0  0.50        -2.3190   1.0000                                         
     3  1  1.50       -18.8125   6.0000                                         
     3  2  1.50        -1.3606   0.0000                                         
   Description                                                                  
     l       E           TYP  RCUT    TYP  RCUT                                 
     0    -35.3418873     23  2.300                                             
     0     -2.3190215     23  2.300                                             
     1    -18.8124623     23  2.300                                             
     1    -20.4087390     23  2.300                                             
     2     -1.3605826     23  2.300                                             
  local pseudopotential read in
  partial core-charges read in
  partial kinetic energy density read in
  atomic valenz-charges read in
  non local Contribution for L=           0  read in
    real space projection operators read in
  non local Contribution for L=           0  read in
    real space projection operators read in
  non local Contribution for L=           1  read in
    real space projection operators read in
  non local Contribution for L=           1  read in
    real space projection operators read in
  non local Contribution for L=           2  read in
    real space projection operators read in
    PAW grid and wavefunctions read in
 
   number of l-projection  operators is LMAX  =           5
   number of lm-projection operators is LMMAX =          13
 
 POTCAR:    PAW_PBE Na_pv 19Sep2006               
   VRHFIN =Na: p6s1                                                             
   LEXCH  = PE                                                                  
   EATOM  =   766.0439 eV,   56.3026 Ry                                         
                                                                                
   TITEL  = PAW_PBE Na_pv 19Sep2006                                             
   LULTRA =        F    use ultrasoft PP ?                                      
   IUNSCR =        1    unscreen: 0-lin 1-nonlin 2-no                           
   RPACOR =    1.800    partial core radius                                     
   POMASS =   22.990; ZVAL   =    7.000    mass and valenz                      
   RCORE  =    2.200    outmost cutoff radius                                   
   RWIGS  =    2.200; RWIGS  =    1.164    wigner-seitz radius (au A)           
   ENMAX  =  259.561; ENMIN  =  194.671 eV                                      
   ICORE  =        2    local potential                                         
   LCOR   =        T    correct aug charges                                     
   LPAW   =        T    paw PP                                                  
   EAUG   =  368.056                                                            
   DEXC   =    0.000                                                            
   RMAX   =    2.245    core radius for proj-oper                               
   RAUG   =    1.300    factor for augmentation sphere                          
   RDEP   =    2.259    radius for radial grids                                 
   RDEPT  =    1.738    core radius for aug-charge                              
                                                                                
   Atomic configuration                                                         
    5 entries                                                                   
     n  l   j            E        occ.                                          
     1  0  0.50     -1033.6933   2.0000                                         
     2  0  0.50       -56.7526   2.0000                                         
     2  1  1.50       -28.6721   6.0000                                         
     3  0  0.50        -2.7440   1.0000                                         
     3  2  1.50        -1.3606   0.0000                                         
   Description                                                                  
     l       E           TYP  RCUT    TYP  RCUT                                 
     1    -28.6720912     23  2.000                                             
     1      6.8029130     23  2.000                                             
     0     -2.7439560     23  2.200                                             
     0     34.0145650     23  2.200                                             
     2     -1.3605826     23  2.200                                             
  local pseudopotential read in
  partial core-charges read in
  partial kinetic energy density read in
  atomic valenz-charges read in
  non local Contribution for L=           1  read in
    real space projection operators read in
  non local Contribution for L=           1  read in
    real space projection operators read in
  non local Contribution for L=           0  read in
    real space projection operators read in
  non local Contribution for L=           0  read in
    real space projection operators read in
    PAW grid and wavefunctions read in
 
   number of l-projection  operators is LMAX  =           4
   number of lm-projection operators is LMMAX =           8
 
 POTCAR:    PAW_PBE Sb 06Sep2000                  
   VRHFIN =Sb: s2p3                                                             
   LEXCH  = PE                                                                  
   EATOM  =   149.9515 eV,   11.0211 Ry                                         
                                                                                
   TITEL  = PAW_PBE Sb 06Sep2000                                                
   LULTRA =        F    use ultrasoft PP ?                                      
   IUNSCR =        1    unscreen: 0-lin 1-nonlin 2-no                           
   RPACOR =    2.200    partial core radius                                     
   POMASS =  121.750; ZVAL   =    5.000    mass and valenz                      
   RCORE  =    2.300    outmost cutoff radius                                   
   RWIGS  =    2.980; RWIGS  =    1.577    wigner-seitz radius (au A)           
   ENMAX  =  172.069; ENMIN  =  129.052 eV                                      
   ICORE  =        3    local potential                                         
   LCOR   =        T    correct aug charges                                     
   LPAW   =        T    paw PP                                                  
   EAUG   =  380.513                                                            
   DEXC   =    0.000                                                            
   RMAX   =    2.346    core radius for proj-oper                               
   RAUG   =    1.300    factor for augmentation sphere                          
   RDEP   =    2.360    radius for radial grids                                 
   RDEPT  =    2.192    core radius for aug-charge                              
                                                                                
   Atomic configuration                                                         
   13 entries                                                                   
     n  l   j            E        occ.                                          
     1  0  0.50    -30298.2797   2.0000                                         
     2  0  0.50     -4610.2252   2.0000                                         
     2  1  1.50     -4138.3407   6.0000                                         
     3  0  0.50      -903.8815   2.0000                                         
     3  1  1.50      -750.1337   6.0000                                         
     3  2  2.50      -515.7092  10.0000                                         
     4  0  0.50      -148.8034   2.0000                                         
     4  1  1.50      -101.7581   6.0000                                         
     4  2  2.50       -33.5048  10.0000                                         
     5  0  0.50       -12.8298   2.0000                                         
     5  1  0.50        -4.8276   3.0000                                         
     5  2  1.50        -4.0817   0.0000                                         
     4  3  2.50        -4.0817   0.0000                                         
   Description                                                                  
     l       E           TYP  RCUT    TYP  RCUT                                 
     0    -12.8297861     23  2.300                                             
     0     13.6058260     23  2.300                                             
     1     -4.8275512     23  2.300                                             
     1     -0.7245443     23  2.300                                             
     2     -4.0817478     23  2.300                                             
     3     -1.3605826     23  2.300                                             
  local pseudopotential read in
  partial core-charges read in
  partial kinetic energy density read in
  atomic valenz-charges read in
  non local Contribution for L=           0  read in
    real space projection operators read in
  non local Contribution for L=           0  read in
    real space projection operators read in
  non local Contribution for L=           1  read in
    real space projection operators read in
  non local Contribution for L=           1  read in
    real space projection operators read in
  non local Contribution for L=           2  read in
    real space projection operators read in
    PAW grid and wavefunctions read in
 
   number of l-projection  operators is LMAX  =           5
   number of lm-projection operators is LMMAX =          13
 
  PAW_PBE K_sv 06Sep2000                :
 energy of atom  1       EATOM= -775.0067
 kinetic energy error for atom=    0.0014 (will be added to EATOM!!)
  PAW_PBE Na_pv 19Sep2006               :
 energy of atom  2       EATOM= -766.0439
 kinetic energy error for atom=    0.0019 (will be added to EATOM!!)
  PAW_PBE Sb 06Sep2000                  :
 energy of atom  3       EATOM= -149.9515
 kinetic energy error for atom=    0.0005 (will be added to EATOM!!)
 
 
 POSCAR: Na K Sb                                 
  positions in direct lattice
  velocities in cartesian coordinates
 exchange correlation table for  LEXCH =        8
   RHO(1)=    0.500       N(1)  =     2000
   RHO(2)=  100.500       N(2)  =     4000
 


--------------------------------------------------------------------------------------------------------


 ion  position               nearest neighbor table
   1  0.500  0.000  0.500-
   2  0.750  0.500  0.250-
   3  0.250  0.500  0.750-
   4  0.000  0.000  0.000-
 
  LATTYP: Found a face centered cubic cell.
 ALAT       =     7.8034523841
  
  Lattice vectors:
  
 A1 = (  -3.9017261921,   0.0000000000,  -3.9017261921)
 A2 = (   0.0000000000,  -3.9017261921,  -3.9017261921)
 A3 = (  -3.9017261921,  -3.9017261921,   0.0000000000)


Analysis of symmetry for initial positions (statically):
=====================================================================
 Subroutine PRICEL returns:
 Original cell was already a primitive cell.
 

 Routine SETGRP: Setting up the symmetry group for a 
 face centered cubic supercell.


 Subroutine GETGRP returns: Found 48 space group operations
 (whereof 48 operations were pure point group operations)
 out of a pool of 48 trial point group operations.


The static configuration has the point symmetry O_h .


Analysis of symmetry for dynamics (positions and initial velocities):
=====================================================================
 Subroutine PRICEL returns:
 Original cell was already a primitive cell.
 

 Routine SETGRP: Setting up the symmetry group for a 
 face centered cubic supercell.


 Subroutine GETGRP returns: Found 48 space group operations
 (whereof 48 operations were pure point group operations)
 out of a pool of 48 trial point group operations.


The dynamic configuration has the point symmetry O_h .


 Subroutine INISYM returns: Found 48 space group operations
 (whereof 48 operations are pure point group operations),
 and found     1 'primitive' translations

 
 
 KPOINTS: KPOINTS                                 

Automatic generation of k-mesh.
Space group operators:
 irot       det(A)        alpha          n_x          n_y          n_z        tau_x        tau_y        tau_z
    1     1.000000     0.000000     1.000000     0.000000     0.000000     0.000000     0.000000     0.000000
    2    -1.000000     0.000000     1.000000     0.000000     0.000000     0.000000     0.000000     0.000000
    3     1.000000   120.000000     0.577350     0.577350     0.577350     0.000000     0.000000     0.000000
    4    -1.000000   120.000000     0.577350     0.577350     0.577350     0.000000     0.000000     0.000000
    5     1.000000   120.000000    -0.577350    -0.577350    -0.577350     0.000000     0.000000     0.000000
    6    -1.000000   120.000000    -0.577350    -0.577350    -0.577350     0.000000     0.000000     0.000000
    7     1.000000    90.000000     0.000000     0.000000     1.000000     0.000000     0.000000     0.000000
    8    -1.000000    90.000000     0.000000     0.000000     1.000000     0.000000     0.000000     0.000000
    9     1.000000   180.000000     0.707107     0.000000     0.707107     0.000000     0.000000     0.000000
   10    -1.000000   180.000000     0.707107     0.000000     0.707107     0.000000     0.000000     0.000000
   11     1.000000    90.000000    -1.000000     0.000000     0.000000     0.000000     0.000000     0.000000
   12    -1.000000    90.000000    -1.000000     0.000000     0.000000     0.000000     0.000000     0.000000
   13     1.000000   180.000000     0.000000     0.000000     1.000000     0.000000     0.000000     0.000000
   14    -1.000000   180.000000     0.000000     0.000000     1.000000     0.000000     0.000000     0.000000
   15     1.000000   120.000000    -0.577350     0.577350    -0.577350     0.000000     0.000000     0.000000
   16    -1.000000   120.000000    -0.577350     0.577350    -0.577350     0.000000     0.000000     0.000000
   17     1.000000   120.000000    -0.577350     0.577350     0.577350     0.000000     0.000000     0.000000
   18    -1.000000   120.000000    -0.577350     0.577350     0.577350     0.000000     0.000000     0.000000
   19     1.000000    90.000000     0.000000     0.000000    -1.000000     0.000000     0.000000     0.000000
   20    -1.000000    90.000000     0.000000     0.000000    -1.000000     0.000000     0.000000     0.000000
   21     1.000000    90.000000     0.000000     1.000000     0.000000     0.000000     0.000000     0.000000
   22    -1.000000    90.000000     0.000000     1.000000     0.000000     0.000000     0.000000     0.000000
   23     1.000000   180.000000     0.000000     0.707107     0.707107     0.000000     0.000000     0.000000
   24    -1.000000   180.000000     0.000000     0.707107     0.707107     0.000000     0.000000     0.000000
   25     1.000000   120.000000     0.577350    -0.577350    -0.577350     0.000000     0.000000     0.000000
   26    -1.000000   120.000000     0.577350    -0.577350    -0.577350     0.000000     0.000000     0.000000
   27     1.000000   120.000000     0.577350     0.577350    -0.577350     0.000000     0.000000     0.000000
   28    -1.000000   120.000000     0.577350     0.577350    -0.577350     0.000000     0.000000     0.000000
   29     1.000000   180.000000     0.000000     1.000000     0.000000     0.000000     0.000000     0.000000
   30    -1.000000   180.000000     0.000000     1.000000     0.000000     0.000000     0.000000     0.000000
   31     1.000000    90.000000     1.000000     0.000000     0.000000     0.000000     0.000000     0.000000
   32    -1.000000    90.000000     1.000000     0.000000     0.000000     0.000000     0.000000     0.000000
   33     1.000000   180.000000     0.707107     0.707107     0.000000     0.000000     0.000000     0.000000
   34    -1.000000   180.000000     0.707107     0.707107     0.000000     0.000000     0.000000     0.000000
   35     1.000000    90.000000     0.000000    -1.000000     0.000000     0.000000     0.000000     0.000000
   36    -1.000000    90.000000     0.000000    -1.000000     0.000000     0.000000     0.000000     0.000000
   37     1.000000   120.000000     0.577350    -0.577350     0.577350     0.000000     0.000000     0.000000
   38    -1.000000   120.000000     0.577350    -0.577350     0.577350     0.000000     0.000000     0.000000
   39     1.000000   180.000000     1.000000     0.000000     0.000000     0.000000     0.000000     0.000000
   40    -1.000000   180.000000     1.000000     0.000000     0.000000     0.000000     0.000000     0.000000
   41     1.000000   120.000000    -0.577350    -0.577350     0.577350     0.000000     0.000000     0.000000
   42    -1.000000   120.000000    -0.577350    -0.577350     0.577350     0.000000     0.000000     0.000000
   43     1.000000   180.000000     0.707107     0.000000    -0.707107     0.000000     0.000000     0.000000
   44    -1.000000   180.000000     0.707107     0.000000    -0.707107     0.000000     0.000000     0.000000
   45     1.000000   180.000000     0.707107    -0.707107     0.000000     0.000000     0.000000     0.000000
   46    -1.000000   180.000000     0.707107    -0.707107     0.000000     0.000000     0.000000     0.000000
   47     1.000000   180.000000     0.000000    -0.707107     0.707107     0.000000     0.000000     0.000000
   48    -1.000000   180.000000     0.000000    -0.707107     0.707107     0.000000     0.000000     0.000000
 
 Subroutine IBZKPT returns following result:
 ===========================================
 
 Found     29 irreducible k-points:
 
 Following reciprocal coordinates:
            Coordinates               Weight
  0.000000  0.000000  0.000000      1.000000
  0.125000  0.000000  0.000000      8.000000
  0.250000  0.000000  0.000000      8.000000
  0.375000  0.000000  0.000000      8.000000
  0.500000  0.000000  0.000000      4.000000
  0.000000  0.125000  0.000000      6.000000
  0.125000  0.125000  0.000000     24.000000
  0.250000  0.125000  0.000000     24.000000
  0.375000  0.125000  0.000000     24.000000
  0.500000  0.125000  0.000000     24.000000
 -0.375000  0.125000  0.000000     24.000000
 -0.250000  0.125000  0.000000     12.000000
  0.000000  0.250000  0.000000      6.000000
  0.125000  0.250000  0.000000     24.000000
  0.250000  0.250000  0.000000     24.000000
  0.375000  0.250000  0.000000     24.000000
  0.500000  0.250000  0.000000     12.000000
  0.000000  0.375000  0.000000      6.000000
  0.125000  0.375000  0.000000     24.000000
  0.250000  0.375000  0.000000     12.000000
  0.000000  0.500000  0.000000      3.000000
  0.125000  0.125000  0.125000     24.000000
  0.250000  0.125000  0.125000     48.000000
  0.375000  0.125000  0.125000     24.000000
  0.125000  0.250000  0.125000     24.000000
  0.250000  0.250000  0.125000     48.000000
  0.375000  0.250000  0.125000     24.000000
  0.125000  0.375000  0.125000     12.000000
  0.250000  0.250000  0.250000      6.000000
 
 Following cartesian coordinates:
            Coordinates               Weight
  0.000000  0.000000  0.000000      1.000000
  0.016019 -0.016019 -0.016019      8.000000
  0.032037 -0.032037 -0.032037      8.000000
  0.048056 -0.048056 -0.048056      8.000000
  0.064074 -0.064074 -0.064074      4.000000
  0.000000  0.000000 -0.032037      6.000000
  0.016019 -0.016019 -0.048056     24.000000
  0.032037 -0.032037 -0.064074     24.000000
  0.048056 -0.048056 -0.080093     24.000000
  0.064074 -0.064074 -0.096111     24.000000
 -0.048056  0.048056  0.016019     24.000000
 -0.032037  0.032037  0.000000     12.000000
  0.000000  0.000000 -0.064074      6.000000
  0.016019 -0.016019 -0.080093     24.000000
  0.032037 -0.032037 -0.096111     24.000000
  0.048056 -0.048056 -0.112130     24.000000
  0.064074 -0.064074 -0.128148     12.000000
  0.000000  0.000000 -0.096111      6.000000
  0.016019 -0.016019 -0.112130     24.000000
  0.032037 -0.032037 -0.128148     12.000000
  0.000000  0.000000 -0.128148      3.000000
  0.032037  0.000000 -0.064074     24.000000
  0.048056 -0.016019 -0.080093     48.000000
  0.064074 -0.032037 -0.096111     24.000000
  0.032037  0.000000 -0.096111     24.000000
  0.048056 -0.016019 -0.112130     48.000000
  0.064074 -0.032037 -0.128148     24.000000
  0.032037  0.000000 -0.128148     12.000000
  0.064074  0.000000 -0.128148      6.000000
 


--------------------------------------------------------------------------------------------------------




 Dimension of arrays:
   k-points           NKPTS =     29   k-points in BZ     NKDIM =     29   number of bands    NBANDS=     18
   number of dos      NEDOS =    301   number of ions     NIONS =      4
   non local maximal  LDIM  =      5   non local SUM 2l+1 LMDIM =     13
   total plane-waves  NPLWV =  74088
   max r-space proj   IRMAX =      1   max aug-charges    IRDMAX=  34806
   dimension x,y,z NGX =    42 NGY =   42 NGZ =   42
   dimension x,y,z NGXF=    84 NGYF=   84 NGZF=   84
   support grid    NGXF=    84 NGYF=   84 NGZF=   84
   ions per type =               1   2   1
   NGX,Y,Z   is equivalent  to a cutoff of  12.65, 12.65, 12.65 a.u.
   NGXF,Y,Z  is equivalent  to a cutoff of  25.31, 25.31, 25.31 a.u.

 SYSTEM =  unknown system                          
 POSCAR =  Na K Sb                                 

 Startparameter for this run:
   NWRITE =      2    write-flag & timer
   PREC   = acc       normal or accurate (medium, high low for compatibility)
   ISTART =      0    job   : 0-new  1-cont  2-samecut
   ICHARG =      2    charge: 1-file 2-atom 10-const
   ISPIN  =      1    spin polarized calculation?
   LNONCOLLINEAR =      F non collinear calculations
   LSORBIT =      F    spin-orbit coupling
   INIWAV =      1    electr: 0-lowe 1-rand  2-diag
   LASPH  =      F    aspherical Exc in radial PAW
   METAGGA=      F    non-selfconsistent MetaGGA calc.

 Electronic Relaxation 1
   ENCUT  =  520.0 eV  38.22 Ry    6.18 a.u.  10.26 10.26 10.26*2*pi/ulx,y,z
   ENINI  =  520.0     initial cutoff
   ENAUG  =  427.9 eV  augmentation charge cutoff
   NELM   =    150;   NELMIN=  5; NELMDL= -5     # of ELM steps 
   EDIFF  = 0.1E-07   stopping-criterion for ELM
   LREAL  =      F    real-space projection
   NLSPLINE    = F    spline interpolate recip. space projectors
   LCOMPAT=      F    compatible to vasp.4.4
   GGA_COMPAT  = T    GGA compatible to vasp.4.4-vasp.4.6
   LMAXPAW     = -100 max onsite density
   LMAXMIX     =    2 max onsite mixed and CHGCAR
   VOSKOWN=      0    Vosko Wilk Nusair interpolation
   ROPT   =    0.00000   0.00000   0.00000
 Ionic relaxation
   EDIFFG = 0.1E-06   stopping-criterion for IOM
   NSW    =      0    number of steps for IOM
   NBLOCK =      1;   KBLOCK =      1    inner block; outer block 
   IBRION =     -1    ionic relax: 0-MD 1-quasi-New 2-CG
   NFREE  =      0    steps in history (QN), initial steepest desc. (CG)
   ISIF   =      3    stress and relaxation
   IWAVPR =     10    prediction:  0-non 1-charg 2-wave 3-comb
   ISYM   =      2    0-nonsym 1-usesym 2-fastsym
   LCORR  =      T    Harris-Foulkes like correction to forces

   POTIM  = 0.5000    time-step for ionic-motion
   TEIN   =    0.0    initial temperature
   TEBEG  =    0.0;   TEEND  =   0.0 temperature during run
   SMASS  =  -3.00    Nose mass-parameter (am)
   estimated Nose-frequenzy (Omega)   =  0.10E-29 period in steps =****** mass=  -0.696E-27a.u.
   SCALEE = 1.0000    scale energy and forces
   NPACO  =    256;   APACO  = 16.0  distance and # of slots for P.C.
   PSTRESS=    0.0 pullay stress

  Mass of Ions in am
   POMASS =  39.10 22.99121.75
  Ionic Valenz
   ZVAL   =   9.00  7.00  5.00
  Atomic Wigner-Seitz radii
   RWIGS  =  -1.00 -1.00 -1.00
  virtual crystal weights 
   VCA    =   1.00  1.00  1.00
   NELECT =      28.0000    total number of electrons
   NUPDOWN=      -1.0000    fix difference up-down

 DOS related values:
   EMIN   =  10.00;   EMAX   =-10.00  energy-range for DOS
   EFERMI =   0.00
   ISMEAR =     0;   SIGMA  =   0.05  broadening in eV -4-tet -1-fermi 0-gaus

 Electronic relaxation 2 (details)
   IALGO  =     38    algorithm
   LDIAG  =      T    sub-space diagonalisation (order eigenvalues)
   LSUBROT=      F    optimize rotation matrix (better conditioning)
   TURBO    =      0    0=normal 1=particle mesh
   IRESTART =      0    0=no restart 2=restart with 2 vectors
   NREBOOT  =      0    no. of reboots
   NMIN     =      0    reboot dimension
   EREF     =   0.00    reference energy to select bands
   IMIX   =      4    mixing-type and parameters
     AMIX     =   0.40;   BMIX     =  1.00
     AMIX_MAG =   1.60;   BMIX_MAG =  1.00
     AMIN     =   0.10
     WC   =   100.;   INIMIX=   1;  MIXPRE=   1;  MAXMIX= -45

 Intra band minimization:
   WEIMIN = 0.0000     energy-eigenvalue tresh-hold
   EBREAK =  0.14E-09  absolut break condition
   DEPER  =   0.30     relativ break condition  

   TIME   =   0.40     timestep for ELM

  volume/ion in A,a.u.               =      29.70       200.42
  Fermi-wavevector in a.u.,A,eV,Ry     =   1.011255  1.910995 13.913819  1.022637
  Thomas-Fermi vector in A             =   2.144294
 
 Write flags
   LWAVE        =      F    write WAVECAR
   LDOWNSAMPLE  =      F    k-point downsampling of WAVECAR
   LCHARG       =      F    write CHGCAR
   LVTOT        =      F    write LOCPOT, total local potential
   LVHAR        =      F    write LOCPOT, Hartree potential only
   LELF         =      F    write electronic localiz. function (ELF)
   LORBIT       =      0    0 simple, 1 ext, 2 COOP (PROOUT), +10 PAW based schemes


 Dipole corrections
   LMONO  =      F    monopole corrections only (constant potential shift)
   LDIPOL =      F    correct potential (dipole corrections)
   IDIPOL =      0    1-x, 2-y, 3-z, 4-all directions 
   EPSILON=  1.0000000 bulk dielectric constant

 Exchange correlation treatment:
   GGA     =    PE    GGA type
   LEXCH   =     8    internal setting for exchange type
   VOSKOWN=      0    Vosko Wilk Nusair interpolation
   LHFCALC =     F    Hartree Fock is set to
   LHFONE  =     F    Hartree Fock one center treatment
   AEXX    =    0.0000 exact exchange contribution

 Linear response parameters
   LEPSILON=     F    determine dielectric tensor
   LRPA    =     F    only Hartree local field effects (RPA)
   LNABLA  =     F    use nabla operator in PAW spheres
   LVEL    =     F    velocity operator in full k-point grid
   LINTERFAST=   F  fast interpolation
   KINTER  =     0    interpolate to denser k-point grid
   CSHIFT  =0.1000    complex shift for real part using Kramers Kronig
   OMEGAMAX=  -1.0    maximum frequency
   DEG_THRESHOLD= 0.2000000E-02 threshold for treating states as degnerate
   RTIME   =   -0.100 relaxation time in fs
  (WPLASMAI=    0.000 imaginary part of plasma frequency in eV, 0.658/RTIME)
   DFIELD  = 0.0000000 0.0000000 0.0000000 field for delta impulse in time
 
 Orbital magnetization related:
   ORBITALMAG=     F  switch on orbital magnetization
   LCHIMAG   =     F  perturbation theory with respect to B field
   DQ        =  0.001000  dq finite difference perturbation B field
   LLRAUG    =     F  two centre corrections for induced B field



--------------------------------------------------------------------------------------------------------


 Static calculation
 charge density and potential will be updated during run
 non-spin polarized calculation
 Variant of blocked Davidson
 Davidson routine will perform the subspace rotation
 perform sub-space diagonalisation
    after iterative eigenvector-optimisation
 modified Broyden-mixing scheme, WC =      100.0
 initial mixing is a Kerker type mixing with AMIX =  0.4000 and BMIX =      1.0000
 Hartree-type preconditioning will be used
 using additional bands            4
 reciprocal scheme for non local part
 use partial core corrections
 calculate Harris-corrections to forces 
   (improved forces if not selfconsistent)
 use gradient corrections 
 use of overlap-Matrix (Vanderbilt PP)
 Gauss-broadening in eV      SIGMA  =   0.05


--------------------------------------------------------------------------------------------------------


  energy-cutoff  :      520.00
  volume of cell :      118.80
      direct lattice vectors                 reciprocal lattice vectors
     3.901726192 -3.901726192  0.000000000     0.128148408 -0.128148408 -0.128148408
    -3.901726192  0.000000000 -3.901726192     0.000000000  0.000000000 -0.256296816
     3.901726192  3.901726192  0.000000000     0.128148408  0.128148408 -0.128148408

  length of vectors
     5.517874097  5.517874097  5.517874097     0.221959554  0.256296816  0.221959554


 
 k-points in units of 2pi/SCALE and weight: KPOINTS                                 
   0.00000000  0.00000000  0.00000000       0.002
   0.01601855 -0.01601855 -0.01601855       0.016
   0.03203710 -0.03203710 -0.03203710       0.016
   0.04805565 -0.04805565 -0.04805565       0.016
   0.06407420 -0.06407420 -0.06407420       0.008
   0.00000000  0.00000000 -0.03203710       0.012
   0.01601855 -0.01601855 -0.04805565       0.047
   0.03203710 -0.03203710 -0.06407420       0.047
   0.04805565 -0.04805565 -0.08009276       0.047
   0.06407420 -0.06407420 -0.09611131       0.047
  -0.04805565  0.04805565  0.01601855       0.047
  -0.03203710  0.03203710  0.00000000       0.023
   0.00000000  0.00000000 -0.06407420       0.012
   0.01601855 -0.01601855 -0.08009276       0.047
   0.03203710 -0.03203710 -0.09611131       0.047
   0.04805565 -0.04805565 -0.11212986       0.047
   0.06407420 -0.06407420 -0.12814841       0.023
   0.00000000  0.00000000 -0.09611131       0.012
   0.01601855 -0.01601855 -0.11212986       0.047
   0.03203710 -0.03203710 -0.12814841       0.023
   0.00000000  0.00000000 -0.12814841       0.006
   0.03203710  0.00000000 -0.06407420       0.047
   0.04805565 -0.01601855 -0.08009276       0.094
   0.06407420 -0.03203710 -0.09611131       0.047
   0.03203710  0.00000000 -0.09611131       0.047
   0.04805565 -0.01601855 -0.11212986       0.094
   0.06407420 -0.03203710 -0.12814841       0.047
   0.03203710  0.00000000 -0.12814841       0.023
   0.06407420  0.00000000 -0.12814841       0.012
 
 k-points in reciprocal lattice and weights: KPOINTS                                 
   0.00000000  0.00000000  0.00000000       0.002
   0.12500000  0.00000000  0.00000000       0.016
   0.25000000  0.00000000  0.00000000       0.016
   0.37500000  0.00000000  0.00000000       0.016
   0.50000000  0.00000000  0.00000000       0.008
   0.00000000  0.12500000  0.00000000       0.012
   0.12500000  0.12500000  0.00000000       0.047
   0.25000000  0.12500000  0.00000000       0.047
   0.37500000  0.12500000  0.00000000       0.047
   0.50000000  0.12500000  0.00000000       0.047
  -0.37500000  0.12500000  0.00000000       0.047
  -0.25000000  0.12500000  0.00000000       0.023
   0.00000000  0.25000000  0.00000000       0.012
   0.12500000  0.25000000  0.00000000       0.047
   0.25000000  0.25000000  0.00000000       0.047
   0.37500000  0.25000000  0.00000000       0.047
   0.50000000  0.25000000  0.00000000       0.023
   0.00000000  0.37500000  0.00000000       0.012
   0.12500000  0.37500000  0.00000000       0.047
   0.25000000  0.37500000  0.00000000       0.023
   0.00000000  0.50000000  0.00000000       0.006
   0.12500000  0.12500000  0.12500000       0.047
   0.25000000  0.12500000  0.12500000       0.094
   0.37500000  0.12500000  0.12500000       0.047
   0.12500000  0.25000000  0.12500000       0.047
   0.25000000  0.25000000  0.12500000       0.094
   0.37500000  0.25000000  0.12500000       0.047
   0.12500000  0.37500000  0.12500000       0.023
   0.25000000  0.25000000  0.25000000       0.012
 
 position of ions in fractional coordinates (direct lattice) 
   0.49999987  0.00000000  0.49999987
   0.75000175  0.50000117  0.25000058
   0.25000058  0.50000117  0.75000175
   0.00000000  0.00000000  0.00000000
 
 position of ions in cartesian coordinates  (Angst):
   3.90172518  0.00000000  0.00000000
   1.95086766 -1.95086766 -1.95086766
   1.95086766  1.95086766 -1.95086766
   0.00000000  0.00000000  0.00000000
 


--------------------------------------------------------------------------------------------------------


 k-point  1 :   0.0000 0.0000 0.0000  plane waves:    3143
 k-point  2 :   0.1250 0.0000 0.0000  plane waves:    3197
 k-point  3 :   0.2500 0.0000 0.0000  plane waves:    3203
 k-point  4 :   0.3750 0.0000 0.0000  plane waves:    3200
 k-point  5 :   0.5000 0.0000 0.0000  plane waves:    3178
 k-point  6 :   0.0000 0.1250 0.0000  plane waves:    3203
 k-point  7 :   0.1250 0.1250 0.0000  plane waves:    3211
 k-point  8 :   0.2500 0.1250 0.0000  plane waves:    3223
 k-point  9 :   0.3750 0.1250 0.0000  plane waves:    3195
 k-point 10 :   0.5000 0.1250 0.0000  plane waves:    3188
 k-point 11 :  -0.3750 0.1250 0.0000  plane waves:    3199
 k-point 12 :  -0.2500 0.1250 0.0000  plane waves:    3221
 k-point 13 :   0.0000 0.2500 0.0000  plane waves:    3207
 k-point 14 :   0.1250 0.2500 0.0000  plane waves:    3201
 k-point 15 :   0.2500 0.2500 0.0000  plane waves:    3191
 k-point 16 :   0.3750 0.2500 0.0000  plane waves:    3189
 k-point 17 :   0.5000 0.2500 0.0000  plane waves:    3190
 k-point 18 :   0.0000 0.3750 0.0000  plane waves:    3194
 k-point 19 :   0.1250 0.3750 0.0000  plane waves:    3203
 k-point 20 :   0.2500 0.3750 0.0000  plane waves:    3200
 k-point 21 :   0.0000 0.5000 0.0000  plane waves:    3250
 k-point 22 :   0.1250 0.1250 0.1250  plane waves:    3203
 k-point 23 :   0.2500 0.1250 0.1250  plane waves:    3188
 k-point 24 :   0.3750 0.1250 0.1250  plane waves:    3186
 k-point 25 :   0.1250 0.2500 0.1250  plane waves:    3187
 k-point 26 :   0.2500 0.2500 0.1250  plane waves:    3196
 k-point 27 :   0.3750 0.2500 0.1250  plane waves:    3205
 k-point 28 :   0.1250 0.3750 0.1250  plane waves:    3192
 k-point 29 :   0.2500 0.2500 0.2500  plane waves:    3188

 maximum and minimum number of plane-waves per node :       478      433

 maximum number of plane-waves:      3250
 maximum index in each direction: 
   IXMAX=   10   IYMAX=   10   IZMAX=   10
   IXMIN=  -10   IYMIN=  -10   IZMIN=  -10


 parallel 3D FFT for wavefunctions:
    minimum data exchange during FFTs selected (reduces bandwidth)
 parallel 3D FFT for charge:
    minimum data exchange during FFTs selected (reduces bandwidth)


 total amount of memory used by VASP MPI-rank0    47494. kBytes
=======================================================================

   base      :      30000. kBytes
   nonl-proj :       4291. kBytes
   fftplans  :       3210. kBytes
   grid      :       5943. kBytes
   one-center:          8. kBytes
   wavefun   :       4042. kBytes
 
     INWAV:  cpu time    0.0000: real time    0.0000
 Broyden mixing: mesh for mixing (old mesh)
   NGX = 21   NGY = 21   NGZ = 21
  (NGX  = 84   NGY  = 84   NGZ  = 84)
  gives a total of   9261 points

 initial charge density was supplied:
 charge density of overlapping atoms calculated
 number of electron      28.0000000 magnetization 
 keeping initial charge density in first step


--------------------------------------------------------------------------------------------------------


 Maximum index for augmentation-charges         4773 (set IRDMAX)


--------------------------------------------------------------------------------------------------------


 First call to EWALD:  gamma=   0.361
 Maximum number of real-space cells 3x 3x 3
 Maximum number of reciprocal cells 3x 3x 3

    FEWALD:  cpu time    0.0016: real time    0.0016


--------------------------------------- Iteration      1(   1)  ---------------------------------------


    POTLOK:  cpu time    0.0527: real time    0.0546
    SETDIJ:  cpu time    0.0052: real time    0.0052
     EDDAV:  cpu time    0.2211: real time    0.2213
       DOS:  cpu time    0.0005: real time    0.0005
    --------------------------------------------
      LOOP:  cpu time    0.2794: real time    0.2815

 eigenvalue-minimisations  :  1044
 total energy-change (2. order) : 0.2294760E+03  (-0.1352247E+04)
 number of electron      28.0000000 magnetization 
 augmentation part       28.0000000 magnetization 

 Free energy of the ion-electron system (eV)
  ---------------------------------------------------
  alpha Z        PSCENC =        50.22067890
  Ewald energy   TEWEN  =     -1342.03899423
  -Hartree energ DENC   =      -703.24206757
  -exchange      EXHF   =         0.00000000
  -V(xc)+E(xc)   XCENC  =        38.69938194
  PAW double counting   =      1762.39966399    -1880.54449946
  entropy T*S    EENTRO =        -0.00101394
  eigenvalues    EBANDS =      -153.05754362
  atomic energy  EATOM  =      2457.04034448
  Solvation  Ediel_sol  =         0.00000000
  ---------------------------------------------------
  free energy    TOTEN  =       229.47595050 eV

  energy without entropy =      229.47696443  energy(sigma->0) =      229.47645746


--------------------------------------------------------------------------------------------------------




--------------------------------------- Iteration      1(   2)  ---------------------------------------


     EDDAV:  cpu time    0.2139: real time    0.2163
       DOS:  cpu time    0.0004: real time    0.0004
    --------------------------------------------
      LOOP:  cpu time    0.2142: real time    0.2167

 eigenvalue-minimisations  :  1064
 total energy-change (2. order) :-0.2218207E+03  (-0.2174796E+03)
 number of electron      28.0000000 magnetization 
 augmentation part       28.0000000 magnetization 

 Free energy of the ion-electron system (eV)
  ---------------------------------------------------
  alpha Z        PSCENC =        50.22067890
  Ewald energy   TEWEN  =     -1342.03899423
  -Hartree energ DENC   =      -703.24206757
  -exchange      EXHF   =         0.00000000
  -V(xc)+E(xc)   XCENC  =        38.69938194
  PAW double counting   =      1762.39966399    -1880.54449946
  entropy T*S    EENTRO =        -0.00000291
  eigenvalues    EBANDS =      -374.87929876
  atomic energy  EATOM  =      2457.04034448
  Solvation  Ediel_sol  =         0.00000000
  ---------------------------------------------------
  free energy    TOTEN  =         7.65520638 eV

  energy without entropy =        7.65520929  energy(sigma->0) =        7.65520784


--------------------------------------------------------------------------------------------------------




--------------------------------------- Iteration      1(   3)  ---------------------------------------


     EDDAV:  cpu time    0.2969: real time    0.2974
       DOS:  cpu time    0.0002: real time    0.0002
    --------------------------------------------
      LOOP:  cpu time    0.2971: real time    0.2976

 eigenvalue-minimisations  :  1710
 total energy-change (2. order) :-0.1720687E+02  (-0.1706977E+02)
 number of electron      28.0000000 magnetization 
 augmentation part       28.0000000 magnetization 

 Free energy of the ion-electron system (eV)
  ---------------------------------------------------
  alpha Z        PSCENC =        50.22067890
  Ewald energy   TEWEN  =     -1342.03899423
  -Hartree energ DENC   =      -703.24206757
  -exchange      EXHF   =         0.00000000
  -V(xc)+E(xc)   XCENC  =        38.69938194
  PAW double counting   =      1762.39966399    -1880.54449946
  entropy T*S    EENTRO =        -0.00000000
  eigenvalues    EBANDS =      -392.08617006
  atomic energy  EATOM  =      2457.04034448
  Solvation  Ediel_sol  =         0.00000000
  ---------------------------------------------------
  free energy    TOTEN  =        -9.55166201 eV

  energy without entropy =       -9.55166201  energy(sigma->0) =       -9.55166201


--------------------------------------------------------------------------------------------------------




--------------------------------------- Iteration      1(   4)  ---------------------------------------


     EDDAV:  cpu time    0.2469: real time    0.2473
       DOS:  cpu time    0.0002: real time    0.0002
    --------------------------------------------
      LOOP:  cpu time    0.2471: real time    0.2476

 eigenvalue-minimisations  :  1466
 total energy-change (2. order) :-0.5118930E+00  (-0.5106954E+00)
 number of electron      28.0000000 magnetization 
 augmentation part       28.0000000 magnetization 

 Free energy of the ion-electron system (eV)
  ---------------------------------------------------
  alpha Z        PSCENC =        50.22067890
  Ewald energy   TEWEN  =     -1342.03899423
  -Hartree energ DENC   =      -703.24206757
  -exchange      EXHF   =         0.00000000
  -V(xc)+E(xc)   XCENC  =        38.69938194
  PAW double counting   =      1762.39966399    -1880.54449946
  entropy T*S    EENTRO =        -0.00000000
  eigenvalues    EBANDS =      -392.59806311
  atomic energy  EATOM  =      2457.04034448
  Solvation  Ediel_sol  =         0.00000000
  ---------------------------------------------------
  free energy    TOTEN  =       -10.06355505 eV

  energy without entropy =      -10.06355505  energy(sigma->0) =      -10.06355505


--------------------------------------------------------------------------------------------------------




--------------------------------------- Iteration      1(   5)  ---------------------------------------


     EDDAV:  cpu time    0.3041: real time    0.3048
       DOS:  cpu time    0.0002: real time    0.0002
    CHARGE:  cpu time    0.0389: real time    0.0396
    MIXING:  cpu time    0.0030: real time    0.0030
    --------------------------------------------
      LOOP:  cpu time    0.3462: real time    0.3477

 eigenvalue-minimisations  :  1722
 total energy-change (2. order) :-0.1492724E-01  (-0.1492367E-01)
 number of electron      28.0000017 magnetization 
 augmentation part        9.5515458 magnetization 

 Broyden mixing:
  rms(total) = 0.40644E+00    rms(broyden)= 0.40643E+00
  rms(prec ) = 0.92564E+00
  weight for this iteration     100.00

 Free energy of the ion-electron system (eV)
  ---------------------------------------------------
  alpha Z        PSCENC =        50.22067890
  Ewald energy   TEWEN  =     -1342.03899423
  -Hartree energ DENC   =      -703.24206757
  -exchange      EXHF   =         0.00000000
  -V(xc)+E(xc)   XCENC  =        38.69938194
  PAW double counting   =      1762.39966399    -1880.54449946
  entropy T*S    EENTRO =        -0.00000000
  eigenvalues    EBANDS =      -392.61299034
  atomic energy  EATOM  =      2457.04034448
  Solvation  Ediel_sol  =         0.00000000
  ---------------------------------------------------
  free energy    TOTEN  =       -10.07848229 eV

  energy without entropy =      -10.07848229  energy(sigma->0) =      -10.07848229


--------------------------------------------------------------------------------------------------------




--------------------------------------- Iteration      1(   6)  ---------------------------------------


    POTLOK:  cpu time    0.0541: real time    0.0569
    SETDIJ:  cpu time    0.0051: real time    0.0051
     EDDAV:  cpu time    0.2406: real time    0.2409
       DOS:  cpu time    0.0002: real time    0.0002
    CHARGE:  cpu time    0.0324: real time    0.0324
    MIXING:  cpu time    0.0035: real time    0.0035
    --------------------------------------------
      LOOP:  cpu time    0.3360: real time    0.3390

 eigenvalue-minimisations  :  1144
 total energy-change (2. order) : 0.4466940E+00  (-0.9172715E-01)
 number of electron      28.0000017 magnetization 
 augmentation part        9.6101782 magnetization 

 Broyden mixing:
  rms(total) = 0.30412E+00    rms(broyden)= 0.30412E+00
  rms(prec ) = 0.47853E+00
  weight for this iteration     100.00

 eigenvalues of (default mixing * dielectric matrix)
  average eigenvalue GAMMA=   2.0126
  2.0126

 Free energy of the ion-electron system (eV)
  ---------------------------------------------------
  alpha Z        PSCENC =        50.22067890
  Ewald energy   TEWEN  =     -1342.03899423
  -Hartree energ DENC   =      -696.99982714
  -exchange      EXHF   =         0.00000000
  -V(xc)+E(xc)   XCENC  =        38.76809876
  PAW double counting   =      1797.42999729    -1915.79287065
  entropy T*S    EENTRO =        -0.00000000
  eigenvalues    EBANDS =      -398.25921572
  atomic energy  EATOM  =      2457.04034448
  Solvation  Ediel_sol  =         0.00000000
  ---------------------------------------------------
  free energy    TOTEN  =        -9.63178829 eV

  energy without entropy =       -9.63178829  energy(sigma->0) =       -9.63178829


--------------------------------------------------------------------------------------------------------




--------------------------------------- Iteration      1(   7)  ---------------------------------------


    POTLOK:  cpu time    0.0528: real time    0.0532
    SETDIJ:  cpu time    0.0043: real time    0.0043
     EDDAV:  cpu time    0.2613: real time    0.2639
       DOS:  cpu time    0.0003: real time    0.0003
    CHARGE:  cpu time    0.0319: real time    0.0320
    MIXING:  cpu time    0.0027: real time    0.0028
    --------------------------------------------
      LOOP:  cpu time    0.3532: real time    0.3565

 eigenvalue-minimisations  :  1390
 total energy-change (2. order) : 0.7249194E-01  (-0.4603118E-01)
 number of electron      28.0000017 magnetization 
 augmentation part        9.6386683 magnetization 

 Broyden mixing:
  rms(total) = 0.18078E+00    rms(broyden)= 0.18078E+00
  rms(prec ) = 0.21167E+00
  weight for this iteration     100.00

 eigenvalues of (default mixing * dielectric matrix)
  average eigenvalue GAMMA=   2.3182
  1.4011  3.2353

 Free energy of the ion-electron system (eV)
  ---------------------------------------------------
  alpha Z        PSCENC =        50.22067890
  Ewald energy   TEWEN  =     -1342.03899423
  -Hartree energ DENC   =      -691.92308820
  -exchange      EXHF   =         0.00000000
  -V(xc)+E(xc)   XCENC  =        38.87102497
  PAW double counting   =      1848.68391034    -1967.75553419
  entropy T*S    EENTRO =        -0.00000000
  eigenvalues    EBANDS =      -402.65763842
  atomic energy  EATOM  =      2457.04034448
  Solvation  Ediel_sol  =         0.00000000
  ---------------------------------------------------
  free energy    TOTEN  =        -9.55929635 eV

  energy without entropy =       -9.55929635  energy(sigma->0) =       -9.55929635


--------------------------------------------------------------------------------------------------------




--------------------------------------- Iteration      1(   8)  ---------------------------------------


    POTLOK:  cpu time    0.0521: real time    0.0524
    SETDIJ:  cpu time    0.0045: real time    0.0045
     EDDAV:  cpu time    0.2850: real time    0.2853
       DOS:  cpu time    0.0003: real time    0.0003
    CHARGE:  cpu time    0.0320: real time    0.0320
    MIXING:  cpu time    0.0025: real time    0.0025
    --------------------------------------------
      LOOP:  cpu time    0.3764: real time    0.3770

 eigenvalue-minimisations  :  1462
 total energy-change (2. order) :-0.4093904E-03  (-0.4306827E-02)
 number of electron      28.0000017 magnetization 
 augmentation part        9.6157679 magnetization 

 Broyden mixing:
  rms(total) = 0.39223E-01    rms(broyden)= 0.39223E-01
  rms(prec ) = 0.50231E-01
  weight for this iteration     100.00

 eigenvalues of (default mixing * dielectric matrix)
  average eigenvalue GAMMA=   1.6366
  2.3758  1.0333  1.5008

 Free energy of the ion-electron system (eV)
  ---------------------------------------------------
  alpha Z        PSCENC =        50.22067890
  Ewald energy   TEWEN  =     -1342.03899423
  -Hartree energ DENC   =      -690.48212855
  -exchange      EXHF   =         0.00000000
  -V(xc)+E(xc)   XCENC  =        38.95960310
  PAW double counting   =      1916.21390187    -2035.85223618
  entropy T*S    EENTRO =        -0.00000000
  eigenvalues    EBANDS =      -403.62087513
  atomic energy  EATOM  =      2457.04034448
  Solvation  Ediel_sol  =         0.00000000
  ---------------------------------------------------
  free energy    TOTEN  =        -9.55970574 eV

  energy without entropy =       -9.55970574  energy(sigma->0) =       -9.55970574


--------------------------------------------------------------------------------------------------------




--------------------------------------- Iteration      1(   9)  ---------------------------------------


    POTLOK:  cpu time    0.0525: real time    0.0529
    SETDIJ:  cpu time    0.0045: real time    0.0045
     EDDAV:  cpu time    0.2531: real time    0.2534
       DOS:  cpu time    0.0002: real time    0.0002
    CHARGE:  cpu time    0.0323: real time    0.0324
    MIXING:  cpu time    0.0027: real time    0.0027
    --------------------------------------------
      LOOP:  cpu time    0.3453: real time    0.3460

 eigenvalue-minimisations  :  1294
 total energy-change (2. order) : 0.8045192E-03  (-0.4459858E-03)
 number of electron      28.0000017 magnetization 
 augmentation part        9.6191902 magnetization 

 Broyden mixing:
  rms(total) = 0.13213E-01    rms(broyden)= 0.13213E-01
  rms(prec ) = 0.17023E-01
  weight for this iteration     100.00

 eigenvalues of (default mixing * dielectric matrix)
  average eigenvalue GAMMA=   1.8960
  2.5692  2.5692  1.2228  1.2228

 Free energy of the ion-electron system (eV)
  ---------------------------------------------------
  alpha Z        PSCENC =        50.22067890
  Ewald energy   TEWEN  =     -1342.03899423
  -Hartree energ DENC   =      -690.35096231
  -exchange      EXHF   =         0.00000000
  -V(xc)+E(xc)   XCENC  =        38.95579312
  PAW double counting   =      1909.76763377    -2029.27676473
  entropy T*S    EENTRO =        -0.00000000
  eigenvalues    EBANDS =      -403.87663021
  atomic energy  EATOM  =      2457.04034448
  Solvation  Ediel_sol  =         0.00000000
  ---------------------------------------------------
  free energy    TOTEN  =        -9.55890122 eV

  energy without entropy =       -9.55890122  energy(sigma->0) =       -9.55890122


--------------------------------------------------------------------------------------------------------




--------------------------------------- Iteration      1(  10)  ---------------------------------------


    POTLOK:  cpu time    0.0524: real time    0.0527
    SETDIJ:  cpu time    0.0044: real time    0.0043
     EDDAV:  cpu time    0.3004: real time    0.3008
       DOS:  cpu time    0.0002: real time    0.0002
    CHARGE:  cpu time    0.0318: real time    0.0319
    MIXING:  cpu time    0.0027: real time    0.0027
    --------------------------------------------
      LOOP:  cpu time    0.3919: real time    0.3927

 eigenvalue-minimisations  :  1616
 total energy-change (2. order) :-0.1157408E-03  (-0.3630105E-04)
 number of electron      28.0000017 magnetization 
 augmentation part        9.6199922 magnetization 

 Broyden mixing:
  rms(total) = 0.27082E-02    rms(broyden)= 0.27082E-02
  rms(prec ) = 0.37526E-02
  weight for this iteration     100.00

 eigenvalues of (default mixing * dielectric matrix)
  average eigenvalue GAMMA=   1.7394
  2.7198  2.7198  1.3719  1.0914  0.7939

 Free energy of the ion-electron system (eV)
  ---------------------------------------------------
  alpha Z        PSCENC =        50.22067890
  Ewald energy   TEWEN  =     -1342.03899423
  -Hartree energ DENC   =      -690.35206386
  -exchange      EXHF   =         0.00000000
  -V(xc)+E(xc)   XCENC  =        38.96322998
  PAW double counting   =      1906.20539421    -2025.60644432
  entropy T*S    EENTRO =        -0.00000000
  eigenvalues    EBANDS =      -403.99116213
  atomic energy  EATOM  =      2457.04034448
  Solvation  Ediel_sol  =         0.00000000
  ---------------------------------------------------
  free energy    TOTEN  =        -9.55901696 eV

  energy without entropy =       -9.55901696  energy(sigma->0) =       -9.55901696


--------------------------------------------------------------------------------------------------------




--------------------------------------- Iteration      1(  11)  ---------------------------------------


    POTLOK:  cpu time    0.0525: real time    0.0528
    SETDIJ:  cpu time    0.0044: real time    0.0044
     EDDAV:  cpu time    0.3184: real time    0.3195
       DOS:  cpu time    0.0003: real time    0.0003
    CHARGE:  cpu time    0.0331: real time    0.0332
    MIXING:  cpu time    0.0030: real time    0.0030
    --------------------------------------------
      LOOP:  cpu time    0.4117: real time    0.4131

 eigenvalue-minimisations  :  1724
 total energy-change (2. order) :-0.4761278E-05  (-0.2715255E-05)
 number of electron      28.0000017 magnetization 
 augmentation part        9.6202723 magnetization 

 Broyden mixing:
  rms(total) = 0.16007E-02    rms(broyden)= 0.16007E-02
  rms(prec ) = 0.19511E-02
  weight for this iteration     100.00

 eigenvalues of (default mixing * dielectric matrix)
  average eigenvalue GAMMA=   1.7359
  2.8443  2.4076  1.6288  1.3280  1.1033  1.1033

 Free energy of the ion-electron system (eV)
  ---------------------------------------------------
  alpha Z        PSCENC =        50.22067890
  Ewald energy   TEWEN  =     -1342.03899423
  -Hartree energ DENC   =      -690.32997333
  -exchange      EXHF   =         0.00000000
  -V(xc)+E(xc)   XCENC  =        38.96472346
  PAW double counting   =      1906.10605973    -2025.50042426
  entropy T*S    EENTRO =        -0.00000000
  eigenvalues    EBANDS =      -404.02143647
  atomic energy  EATOM  =      2457.04034448
  Solvation  Ediel_sol  =         0.00000000
  ---------------------------------------------------
  free energy    TOTEN  =        -9.55902172 eV

  energy without entropy =       -9.55902172  energy(sigma->0) =       -9.55902172


--------------------------------------------------------------------------------------------------------




--------------------------------------- Iteration      1(  12)  ---------------------------------------


    POTLOK:  cpu time    0.0539: real time    0.0552
    SETDIJ:  cpu time    0.0050: real time    0.0050
     EDDAV:  cpu time    0.2639: real time    0.2641
       DOS:  cpu time    0.0003: real time    0.0003
    CHARGE:  cpu time    0.0320: real time    0.0320
    MIXING:  cpu time    0.0028: real time    0.0028
    --------------------------------------------
      LOOP:  cpu time    0.3578: real time    0.3593

 eigenvalue-minimisations  :  1402
 total energy-change (2. order) : 0.4812318E-07  (-0.3508057E-06)
 number of electron      28.0000017 magnetization 
 augmentation part        9.6201806 magnetization 

 Broyden mixing:
  rms(total) = 0.32347E-03    rms(broyden)= 0.32347E-03
  rms(prec ) = 0.39202E-03
  weight for this iteration     100.00

 eigenvalues of (default mixing * dielectric matrix)
  average eigenvalue GAMMA=   1.7757
  2.9616  2.5295  1.7543  1.7543  1.3442  1.0663  1.0198

 Free energy of the ion-electron system (eV)
  ---------------------------------------------------
  alpha Z        PSCENC =        50.22067890
  Ewald energy   TEWEN  =     -1342.03899423
  -Hartree energ DENC   =      -690.31347672
  -exchange      EXHF   =         0.00000000
  -V(xc)+E(xc)   XCENC  =        38.96484611
  PAW double counting   =      1906.96903776    -2026.38071844
  entropy T*S    EENTRO =        -0.00000000
  eigenvalues    EBANDS =      -404.02073953
  atomic energy  EATOM  =      2457.04034448
  Solvation  Ediel_sol  =         0.00000000
  ---------------------------------------------------
  free energy    TOTEN  =        -9.55902167 eV

  energy without entropy =       -9.55902167  energy(sigma->0) =       -9.55902167


--------------------------------------------------------------------------------------------------------




--------------------------------------- Iteration      1(  13)  ---------------------------------------


    POTLOK:  cpu time    0.0526: real time    0.0530
    SETDIJ:  cpu time    0.0046: real time    0.0045
     EDDAV:  cpu time    0.2657: real time    0.2658
       DOS:  cpu time    0.0003: real time    0.0003
    CHARGE:  cpu time    0.0321: real time    0.0321
    MIXING:  cpu time    0.0029: real time    0.0029
    --------------------------------------------
      LOOP:  cpu time    0.3582: real time    0.3586

 eigenvalue-minimisations  :  1418
 total energy-change (2. order) :-0.8872121E-08  (-0.2900855E-07)
 number of electron      28.0000017 magnetization 
 augmentation part        9.6201608 magnetization 

 Broyden mixing:
  rms(total) = 0.86222E-04    rms(broyden)= 0.86221E-04
  rms(prec ) = 0.10082E-03
  weight for this iteration     100.00

 eigenvalues of (default mixing * dielectric matrix)
  average eigenvalue GAMMA=   1.7827
  3.0150  2.5232  2.5232  1.5261  1.4001  1.0009  1.0851  1.1880

 Free energy of the ion-electron system (eV)
  ---------------------------------------------------
  alpha Z        PSCENC =        50.22067890
  Ewald energy   TEWEN  =     -1342.03899423
  -Hartree energ DENC   =      -690.31026068
  -exchange      EXHF   =         0.00000000
  -V(xc)+E(xc)   XCENC  =        38.96486859
  PAW double counting   =      1907.17395857    -2026.58590390
  entropy T*S    EENTRO =        -0.00000000
  eigenvalues    EBANDS =      -404.02371342
  atomic energy  EATOM  =      2457.04034448
  Solvation  Ediel_sol  =         0.00000000
  ---------------------------------------------------
  free energy    TOTEN  =        -9.55902168 eV

  energy without entropy =       -9.55902168  energy(sigma->0) =       -9.55902168


--------------------------------------------------------------------------------------------------------




--------------------------------------- Iteration      1(  14)  ---------------------------------------


    POTLOK:  cpu time    0.0524: real time    0.0527
    SETDIJ:  cpu time    0.0047: real time    0.0047
     EDDAV:  cpu time    0.2379: real time    0.2381
       DOS:  cpu time    0.0003: real time    0.0003
    CHARGE:  cpu time    0.0320: real time    0.0320
    MIXING:  cpu time    0.0029: real time    0.0029
    --------------------------------------------
      LOOP:  cpu time    0.3302: real time    0.3307

 eigenvalue-minimisations  :  1126
 total energy-change (2. order) : 0.1221360E-07  (-0.1146766E-08)
 number of electron      28.0000017 magnetization 
 augmentation part        9.6201582 magnetization 

 Broyden mixing:
  rms(total) = 0.38167E-04    rms(broyden)= 0.38167E-04
  rms(prec ) = 0.43784E-04
  weight for this iteration     100.00

 eigenvalues of (default mixing * dielectric matrix)
  average eigenvalue GAMMA=   1.7393
  3.1029  2.5635  2.4735  1.0115  1.0330  1.0330  1.5779  1.4291  1.4291

 Free energy of the ion-electron system (eV)
  ---------------------------------------------------
  alpha Z        PSCENC =        50.22067890
  Ewald energy   TEWEN  =     -1342.03899423
  -Hartree energ DENC   =      -690.31019231
  -exchange      EXHF   =         0.00000000
  -V(xc)+E(xc)   XCENC  =        38.96484705
  PAW double counting   =      1907.23632919    -2026.64890486
  entropy T*S    EENTRO =        -0.00000000
  eigenvalues    EBANDS =      -404.02312988
  atomic energy  EATOM  =      2457.04034448
  Solvation  Ediel_sol  =         0.00000000
  ---------------------------------------------------
  free energy    TOTEN  =        -9.55902167 eV

  energy without entropy =       -9.55902167  energy(sigma->0) =       -9.55902167


--------------------------------------------------------------------------------------------------------




--------------------------------------- Iteration      1(  15)  ---------------------------------------


    POTLOK:  cpu time    0.0526: real time    0.0529
    SETDIJ:  cpu time    0.0045: real time    0.0045
     EDDAV:  cpu time    0.1589: real time    0.1589
       DOS:  cpu time    0.0002: real time    0.0002
    CHARGE:  cpu time    0.0321: real time    0.0321
    MIXING:  cpu time    0.0032: real time    0.0032
    --------------------------------------------
      LOOP:  cpu time    0.2515: real time    0.2519

 eigenvalue-minimisations  :   662
 total energy-change (2. order) :-0.1329954E-07  (-0.9708575E-10)
 number of electron      28.0000017 magnetization 
 augmentation part        9.6201562 magnetization 

 Broyden mixing:
  rms(total) = 0.18175E-04    rms(broyden)= 0.18175E-04
  rms(prec ) = 0.20327E-04
  weight for this iteration     100.00

 eigenvalues of (default mixing * dielectric matrix)
  average eigenvalue GAMMA=   1.7924
  3.0697  2.7030  2.4434  2.4434  1.5990  0.9853  1.0355  1.0355  1.3046  1.3046

 Free energy of the ion-electron system (eV)
  ---------------------------------------------------
  alpha Z        PSCENC =        50.22067890
  Ewald energy   TEWEN  =     -1342.03899423
  -Hartree energ DENC   =      -690.31070893
  -exchange      EXHF   =         0.00000000
  -V(xc)+E(xc)   XCENC  =        38.96486383
  PAW double counting   =      1907.21960130    -2026.63212487
  entropy T*S    EENTRO =        -0.00000000
  eigenvalues    EBANDS =      -404.02268218
  atomic energy  EATOM  =      2457.04034448
  Solvation  Ediel_sol  =         0.00000000
  ---------------------------------------------------
  free energy    TOTEN  =        -9.55902168 eV

  energy without entropy =       -9.55902168  energy(sigma->0) =       -9.55902168


--------------------------------------------------------------------------------------------------------




--------------------------------------- Iteration      1(  16)  ---------------------------------------


    POTLOK:  cpu time    0.0525: real time    0.0528
    SETDIJ:  cpu time    0.0044: real time    0.0044
     EDDAV:  cpu time    0.1585: real time    0.1586
       DOS:  cpu time    0.0002: real time    0.0002
    CHARGE:  cpu time    0.0321: real time    0.0321
    MIXING:  cpu time    0.0030: real time    0.0030
    --------------------------------------------
      LOOP:  cpu time    0.2507: real time    0.2511

 eigenvalue-minimisations  :   622
 total energy-change (2. order) :-0.1006174E-07  (-0.3961293E-10)
 number of electron      28.0000017 magnetization 
 augmentation part        9.6201564 magnetization 

 Broyden mixing:
  rms(total) = 0.45571E-05    rms(broyden)= 0.45571E-05
  rms(prec ) = 0.48120E-05
  weight for this iteration     100.00

 eigenvalues of (default mixing * dielectric matrix)
  average eigenvalue GAMMA=   1.7768
  3.1491  2.7537  2.7537  1.9486  1.9486  1.4073  1.3219  1.0022  1.0022  1.0689
  1.1892

 Free energy of the ion-electron system (eV)
  ---------------------------------------------------
  alpha Z        PSCENC =        50.22067890
  Ewald energy   TEWEN  =     -1342.03899423
  -Hartree energ DENC   =      -690.31092970
  -exchange      EXHF   =         0.00000000
  -V(xc)+E(xc)   XCENC  =        38.96487376
  PAW double counting   =      1907.20380893    -2026.61622387
  entropy T*S    EENTRO =        -0.00000000
  eigenvalues    EBANDS =      -404.02257996
  atomic energy  EATOM  =      2457.04034448
  Solvation  Ediel_sol  =         0.00000000
  ---------------------------------------------------
  free energy    TOTEN  =        -9.55902169 eV

  energy without entropy =       -9.55902169  energy(sigma->0) =       -9.55902169


--------------------------------------------------------------------------------------------------------




--------------------------------------- Iteration      1(  17)  ---------------------------------------


    POTLOK:  cpu time    0.0519: real time    0.0522
    SETDIJ:  cpu time    0.0044: real time    0.0044
     EDDAV:  cpu time    0.1583: real time    0.1584
       DOS:  cpu time    0.0002: real time    0.0002
    --------------------------------------------
      LOOP:  cpu time    0.2148: real time    0.2152

 eigenvalue-minimisations  :   610
 total energy-change (2. order) :-0.1295120E-08  (-0.1265707E-10)
 number of electron      28.0000017 magnetization 
 augmentation part        9.6201564 magnetization 

 Free energy of the ion-electron system (eV)
  ---------------------------------------------------
  alpha Z        PSCENC =        50.22067890
  Ewald energy   TEWEN  =     -1342.03899423
  -Hartree energ DENC   =      -690.31091777
  -exchange      EXHF   =         0.00000000
  -V(xc)+E(xc)   XCENC  =        38.96487434
  PAW double counting   =      1907.20433271    -2026.61676797
  entropy T*S    EENTRO =        -0.00000000
  eigenvalues    EBANDS =      -404.02257215
  atomic energy  EATOM  =      2457.04034448
  Solvation  Ediel_sol  =         0.00000000
  ---------------------------------------------------
  free energy    TOTEN  =        -9.55902169 eV

  energy without entropy =       -9.55902169  energy(sigma->0) =       -9.55902169


--------------------------------------------------------------------------------------------------------




 average (electrostatic) potential at core
  the test charge radii are     1.1045  0.9254  1.1712
  (the norm of the test charge is              1.0000)
       1 -36.2377       2 -47.9659       3 -47.9659       4 -89.0705
 
 
 
 E-fermi :   2.2964     XC(G=0):  -8.0108     alpha+bet : -8.0669


 k-point     1 :       0.0000    0.0000    0.0000
  band No.  band energies     occupation 
      1     -28.9743      2.00000
      2     -22.1695      2.00000
      3     -22.1695      2.00000
      4     -22.1695      2.00000
      5     -22.1597      2.00000
      6     -22.1597      2.00000
      7     -22.1597      2.00000
      8     -12.4922      2.00000
      9     -12.4922      2.00000
     10     -12.4922      2.00000
     11      -5.8463      2.00000
     12       2.0816      2.00000
     13       2.0816      2.00000
     14       2.0816      2.00000
     15       2.7374      0.00000
     16       4.8620      0.00000
     17       4.8620      0.00000
     18       4.8620      0.00000

 k-point     2 :       0.1250    0.0000    0.0000
  band No.  band energies     occupation 
      1     -28.9742      2.00000
      2     -22.1693      2.00000
      3     -22.1692      2.00000
      4     -22.1692      2.00000
      5     -22.1601      2.00000
      6     -22.1601      2.00000
      7     -22.1600      2.00000
      8     -12.4954      2.00000
      9     -12.4924      2.00000
     10     -12.4924      2.00000
     11      -5.8016      2.00000
     12       1.3688      2.00000
     13       1.9916      2.00000
     14       1.9917      2.00000
     15       3.3867      0.00000
     16       4.9662      0.00000
     17       5.0215      0.00000
     18       5.0215      0.00000

 k-point     3 :       0.2500    0.0000    0.0000
  band No.  band energies     occupation 
      1     -28.9741      2.00000
      2     -22.1684      2.00000
      3     -22.1682      2.00000
      4     -22.1682      2.00000
      5     -22.1612      2.00000
      6     -22.1612      2.00000
      7     -22.1611      2.00000
      8     -12.5029      2.00000
      9     -12.4928      2.00000
     10     -12.4928      2.00000
     11      -5.6887      2.00000
     12       0.5561      2.00000
     13       1.8039      2.00000
     14       1.8039      2.00000
     15       3.7928      0.00000
     16       5.3810      0.00000
     17       5.3810      0.00000
     18       5.6419      0.00000

 k-point     4 :       0.3750    0.0000    0.0000
  band No.  band energies     occupation 
      1     -28.9740      2.00000
      2     -22.1670      2.00000
      3     -22.1666      2.00000
      4     -22.1666      2.00000
      5     -22.1629      2.00000
      6     -22.1628      2.00000
      7     -22.1628      2.00000
      8     -12.5103      2.00000
      9     -12.4932      2.00000
     10     -12.4932      2.00000
     11      -5.5679      2.00000
     12      -0.0054      2.00000
     13       1.6450      2.00000
     14       1.6450      2.00000
     15       3.8734      0.00000
     16       5.7285      0.00000
     17       5.7285      0.00000
     18       6.6175      0.00000

 k-point     5 :       0.5000    0.0000    0.0000
  band No.  band energies     occupation 
      1     -28.9740      2.00000
      2     -22.1654      2.00000
      3     -22.1648      2.00000
      4     -22.1648      2.00000
      5     -22.1647      2.00000
      6     -22.1647      2.00000
      7     -22.1644      2.00000
      8     -12.5133      2.00000
      9     -12.4934      2.00000
     10     -12.4934      2.00000
     11      -5.5150      2.00000
     12      -0.2074      2.00000
     13       1.5853      2.00000
     14       1.5854      2.00000
     15       3.8971      0.00000
     16       5.8789      0.00000
     17       5.8789      0.00000
     18       6.6241      0.00000

 k-point     6 :       0.0000    0.1250    0.0000
  band No.  band energies     occupation 
      1     -28.9742      2.00000
      2     -22.1698      2.00000
      3     -22.1698      2.00000
      4     -22.1678      2.00000
      5     -22.1615      2.00000
      6     -22.1595      2.00000
      7     -22.1595      2.00000
      8     -12.4953      2.00000
      9     -12.4930      2.00000
     10     -12.4930      2.00000
     11      -5.7880      2.00000
     12       1.2980      2.00000
     13       1.9228      2.00000
     14       1.9228      2.00000
     15       3.5720      0.00000
     16       4.5761      0.00000
     17       5.2657      0.00000
     18       5.2657      0.00000

 k-point     7 :       0.1250    0.1250    0.0000
  band No.  band energies     occupation 
      1     -28.9741      2.00000
      2     -22.1698      2.00000
      3     -22.1697      2.00000
      4     -22.1659      2.00000
      5     -22.1635      2.00000
      6     -22.1597      2.00000
      7     -22.1597      2.00000
      8     -12.5007      2.00000
      9     -12.4937      2.00000
     10     -12.4934      2.00000
     11      -5.7013      2.00000
     12       0.7213      2.00000
     13       1.7314      2.00000
     14       1.7596      2.00000
     15       4.0174      0.00000
     16       4.6217      0.00000
     17       5.6735      0.00000
     18       5.6889      0.00000

 k-point     8 :       0.2500    0.1250    0.0000
  band No.  band energies     occupation 
      1     -28.9741      2.00000
      2     -22.1689      2.00000
      3     -22.1688      2.00000
      4     -22.1657      2.00000
      5     -22.1638      2.00000
      6     -22.1608      2.00000
      7     -22.1607      2.00000
      8     -12.5075      2.00000
      9     -12.4942      2.00000
     10     -12.4941      2.00000
     11      -5.5864      2.00000
     12       0.1866      2.00000
     13       1.4926      2.00000
     14       1.6116      2.00000
     15       4.1318      0.00000
     16       5.2463      0.00000
     17       5.8770      0.00000
     18       5.9662      0.00000

 k-point     9 :       0.3750    0.1250    0.0000
  band No.  band energies     occupation 
      1     -28.9740      2.00000
      2     -22.1680      2.00000
      3     -22.1673      2.00000
      4     -22.1671      2.00000
      5     -22.1625      2.00000
      6     -22.1623      2.00000
      7     -22.1619      2.00000
      8     -12.5116      2.00000
      9     -12.4951      2.00000
     10     -12.4940      2.00000
     11      -5.5114      2.00000
     12      -0.0937      2.00000
     13       1.3366      2.00000
     14       1.5474      2.00000
     15       4.2255      0.00000
     16       5.4145      0.00000
     17       6.0648      0.00000
     18       6.4585      0.00000

 k-point    10 :       0.5000    0.1250    0.0000
  band No.  band energies     occupation 
      1     -28.9740      2.00000
      2     -22.1694      2.00000
      3     -22.1653      2.00000
      4     -22.1652      2.00000
      5     -22.1645      2.00000
      6     -22.1642      2.00000
      7     -22.1603      2.00000
      8     -12.5106      2.00000
      9     -12.4956      2.00000
     10     -12.4934      2.00000
     11      -5.5273      2.00000
     12      -0.0350      2.00000
     13       1.3182      2.00000
     14       1.5921      2.00000
     15       4.2762      0.00000
     16       5.4494      0.00000
     17       5.8741      0.00000
     18       6.5641      0.00000

 k-point    11 :      -0.3750    0.1250    0.0000
  band No.  band energies     occupation 
      1     -28.9741      2.00000
      2     -22.1702      2.00000
      3     -22.1665      2.00000
      4     -22.1661      2.00000
      5     -22.1633      2.00000
      6     -22.1631      2.00000
      7     -22.1594      2.00000
      8     -12.5054      2.00000
      9     -12.4952      2.00000
     10     -12.4927      2.00000
     11      -5.6227      2.00000
     12       0.3400      2.00000
     13       1.4536      2.00000
     14       1.7316      2.00000
     15       4.2300      0.00000
     16       5.3896      0.00000
     17       5.4718      0.00000
     18       5.7857      0.00000

 k-point    12 :      -0.2500    0.1250    0.0000
  band No.  band energies     occupation 
      1     -28.9742      2.00000
      2     -22.1701      2.00000
      3     -22.1681      2.00000
      4     -22.1679      2.00000
      5     -22.1614      2.00000
      6     -22.1613      2.00000
      7     -22.1593      2.00000
      8     -12.4990      2.00000
      9     -12.4939      2.00000
     10     -12.4923      2.00000
     11      -5.7354      2.00000
     12       0.8959      2.00000
     13       1.7309      2.00000
     14       1.9028      2.00000
     15       3.8943      0.00000
     16       4.9200      0.00000
     17       5.1168      0.00000
     18       5.5586      0.00000

 k-point    13 :       0.0000    0.2500    0.0000
  band No.  band energies     occupation 
      1     -28.9741      2.00000
      2     -22.1705      2.00000
      3     -22.1705      2.00000
      4     -22.1660      2.00000
      5     -22.1634      2.00000
      6     -22.1590      2.00000
      7     -22.1590      2.00000
      8     -12.5020      2.00000
      9     -12.4948      2.00000
     10     -12.4948      2.00000
     11      -5.6538      2.00000
     12       0.5762      2.00000
     13       1.6378      2.00000
     14       1.6378      2.00000
     15       4.0722      0.00000
     16       4.2246      0.00000
     17       6.2508      0.00000
     18       6.2532      0.00000

 k-point    14 :       0.1250    0.2500    0.0000
  band No.  band energies     occupation 
      1     -28.9740      2.00000
      2     -22.1705      2.00000
      3     -22.1704      2.00000
      4     -22.1683      2.00000
      5     -22.1612      2.00000
      6     -22.1592      2.00000
      7     -22.1592      2.00000
      8     -12.5060      2.00000
      9     -12.4962      2.00000
     10     -12.4955      2.00000
     11      -5.5716      2.00000
     12       0.3114      2.00000
     13       1.3702      2.00000
     14       1.5192      2.00000
     15       4.0454      0.00000
     16       4.5014      0.00000
     17       6.0436      0.00000
     18       6.5112      0.00000

 k-point    15 :       0.2500    0.2500    0.0000
  band No.  band energies     occupation 
      1     -28.9740      2.00000
      2     -22.1704      2.00000
      3     -22.1695      2.00000
      4     -22.1692      2.00000
      5     -22.1604      2.00000
      6     -22.1602      2.00000
      7     -22.1594      2.00000
      8     -12.5084      2.00000
      9     -12.4985      2.00000
     10     -12.4954      2.00000
     11      -5.5019      2.00000
     12       0.1617      2.00000
     13       0.9980      2.00000
     14       1.4624      2.00000
     15       4.1890      0.00000
     16       5.2736      0.00000
     17       5.7708      0.00000
     18       6.5540      0.00000

 k-point    16 :       0.3750    0.2500    0.0000
  band No.  band energies     occupation 
      1     -28.9740      2.00000
      2     -22.1713      2.00000
      3     -22.1678      2.00000
      4     -22.1675      2.00000
      5     -22.1622      2.00000
      6     -22.1618      2.00000
      7     -22.1584      2.00000
      8     -12.5079      2.00000
      9     -12.5006      2.00000
     10     -12.4945      2.00000
     11      -5.4882      2.00000
     12       0.1641      2.00000
     13       0.8048      2.00000
     14       1.4922      2.00000
     15       4.5060      0.00000
     16       5.5041      0.00000
     17       6.2877      0.00000
     18       6.3540      0.00000

 k-point    17 :       0.5000    0.2500    0.0000
  band No.  band energies     occupation 
      1     -28.9740      2.00000
      2     -22.1712      2.00000
      3     -22.1656      2.00000
      4     -22.1653      2.00000
      5     -22.1644      2.00000
      6     -22.1639      2.00000
      7     -22.1584      2.00000
      8     -12.5067      2.00000
      9     -12.4992      2.00000
     10     -12.4934      2.00000
     11      -5.5394      2.00000
     12       0.2212      2.00000
     13       0.9861      2.00000
     14       1.5988      2.00000
     15       4.8190      0.00000
     16       5.4432      0.00000
     17       5.5699      0.00000
     18       5.8692      0.00000

 k-point    18 :       0.0000    0.3750    0.0000
  band No.  band energies     occupation 
      1     -28.9740      2.00000
      2     -22.1712      2.00000
      3     -22.1712      2.00000
      4     -22.1704      2.00000
      5     -22.1591      2.00000
      6     -22.1585      2.00000
      7     -22.1585      2.00000
      8     -12.5077      2.00000
      9     -12.4967      2.00000
     10     -12.4967      2.00000
     11      -5.5319      2.00000
     12       0.2357      2.00000
     13       1.4282      2.00000
     14       1.4282      2.00000
     15       3.6964      0.00000
     16       4.0349      0.00000
     17       6.7664      0.00000
     18       7.0034      0.00000

 k-point    19 :       0.1250    0.3750    0.0000
  band No.  band energies     occupation 
      1     -28.9739      2.00000
      2     -22.1718      2.00000
      3     -22.1710      2.00000
      4     -22.1708      2.00000
      5     -22.1589      2.00000
      6     -22.1588      2.00000
      7     -22.1578      2.00000
      8     -12.5085      2.00000
      9     -12.4986      2.00000
     10     -12.4969      2.00000
     11      -5.4910      2.00000
     12       0.2175      2.00000
     13       1.1167      2.00000
     14       1.3852      2.00000
     15       3.7888      0.00000
     16       4.2140      0.00000
     17       6.8563      0.00000
     18       7.0952      0.00000

 k-point    20 :       0.2500    0.3750    0.0000
  band No.  band energies     occupation 
      1     -28.9739      2.00000
      2     -22.1721      2.00000
      3     -22.1698      2.00000
      4     -22.1695      2.00000
      5     -22.1602      2.00000
      6     -22.1600      2.00000
      7     -22.1576      2.00000
      8     -12.5063      2.00000
      9     -12.5026      2.00000
     10     -12.4960      2.00000
     11      -5.4731      2.00000
     12       0.3821      2.00000
     13       0.6112      2.00000
     14       1.4096      2.00000
     15       4.0570      0.00000
     16       5.1064      0.00000
     17       6.6231      0.00000
     18       6.7907      0.00000

 k-point    21 :       0.0000    0.5000    0.0000
  band No.  band energies     occupation 
      1     -28.9739      2.00000
      2     -22.1723      2.00000
      3     -22.1715      2.00000
      4     -22.1715      2.00000
      5     -22.1583      2.00000
      6     -22.1583      2.00000
      7     -22.1573      2.00000
      8     -12.5098      2.00000
      9     -12.4975      2.00000
     10     -12.4975      2.00000
     11      -5.4861      2.00000
     12       0.1629      2.00000
     13       1.3551      2.00000
     14       1.3551      2.00000
     15       3.5626      0.00000
     16       3.7921      0.00000
     17       7.2971      0.00000
     18       7.5516      0.00000

 k-point    22 :       0.1250    0.1250    0.1250
  band No.  band energies     occupation 
      1     -28.9741      2.00000
      2     -22.1707      2.00000
      3     -22.1687      2.00000
      4     -22.1658      2.00000
      5     -22.1636      2.00000
      6     -22.1609      2.00000
      7     -22.1588      2.00000
      8     -12.5043      2.00000
      9     -12.4961      2.00000
     10     -12.4936      2.00000
     11      -5.6167      2.00000
     12       0.4142      2.00000
     13       1.3934      2.00000
     14       1.6462      2.00000
     15       4.5070      0.00000
     16       4.5648      0.00000
     17       5.6936      0.00000
     18       6.0756      0.00000

 k-point    23 :       0.2500    0.1250    0.1250
  band No.  band energies     occupation 
      1     -28.9740      2.00000
      2     -22.1708      2.00000
      3     -22.1680      2.00000
      4     -22.1670      2.00000
      5     -22.1627      2.00000
      6     -22.1615      2.00000
      7     -22.1589      2.00000
      8     -12.5079      2.00000
      9     -12.4979      2.00000
     10     -12.4944      2.00000
     11      -5.5283      2.00000
     12       0.1646      2.00000
     13       1.0998      2.00000
     14       1.4975      2.00000
     15       4.6067      0.00000
     16       5.2508      0.00000
     17       5.4504      0.00000
     18       6.4253      0.00000

 k-point    24 :       0.3750    0.1250    0.1250
  band No.  band energies     occupation 
      1     -28.9740      2.00000
      2     -22.1703      2.00000
      3     -22.1693      2.00000
      4     -22.1650      2.00000
      5     -22.1648      2.00000
      6     -22.1598      2.00000
      7     -22.1598      2.00000
      8     -12.5094      2.00000
      9     -12.4985      2.00000
     10     -12.4948      2.00000
     11      -5.4905      2.00000
     12       0.0666      2.00000
     13       0.9949      2.00000
     14       1.4350      2.00000
     15       4.7248      0.00000
     16       5.0375      0.00000
     17       6.3300      0.00000
     18       6.3557      0.00000

 k-point    25 :       0.1250    0.2500    0.1250
  band No.  band energies     occupation 
      1     -28.9740      2.00000
      2     -22.1715      2.00000
      3     -22.1702      2.00000
      4     -22.1693      2.00000
      5     -22.1605      2.00000
      6     -22.1592      2.00000
      7     -22.1584      2.00000
      8     -12.5073      2.00000
      9     -12.4983      2.00000
     10     -12.4963      2.00000
     11      -5.5131      2.00000
     12       0.2482      2.00000
     13       1.1461      2.00000
     14       1.3281      2.00000
     15       4.2381      0.00000
     16       4.5068      0.00000
     17       5.9982      0.00000
     18       7.0317      0.00000

 k-point    26 :       0.2500    0.2500    0.1250
  band No.  band energies     occupation 
      1     -28.9739      2.00000
      2     -22.1719      2.00000
      3     -22.1708      2.00000
      4     -22.1674      2.00000
      5     -22.1624      2.00000
      6     -22.1585      2.00000
      7     -22.1581      2.00000
      8     -12.5065      2.00000
      9     -12.5013      2.00000
     10     -12.4967      2.00000
     11      -5.4758      2.00000
     12       0.3311      2.00000
     13       0.7610      2.00000
     14       1.2455      2.00000
     15       4.4788      0.00000
     16       5.1582      0.00000
     17       5.8055      0.00000
     18       6.5879      0.00000

 k-point    27 :       0.3750    0.2500    0.1250
  band No.  band energies     occupation 
      1     -28.9739      2.00000
      2     -22.1719      2.00000
      3     -22.1698      2.00000
      4     -22.1651      2.00000
      5     -22.1647      2.00000
      6     -22.1597      2.00000
      7     -22.1580      2.00000
      8     -12.5058      2.00000
      9     -12.5023      2.00000
     10     -12.4957      2.00000
     11      -5.4823      2.00000
     12       0.3219      2.00000
     13       0.6959      2.00000
     14       1.3324      2.00000
     15       4.8156      0.00000
     16       5.4426      0.00000
     17       5.4979      0.00000
     18       6.4231      0.00000

 k-point    28 :       0.1250    0.3750    0.1250
  band No.  band energies     occupation 
      1     -28.9739      2.00000
      2     -22.1724      2.00000
      3     -22.1713      2.00000
      4     -22.1696      2.00000
      5     -22.1603      2.00000
      6     -22.1582      2.00000
      7     -22.1574      2.00000
      8     -12.5080      2.00000
      9     -12.4992      2.00000
     10     -12.4978      2.00000
     11      -5.4757      2.00000
     12       0.2736      2.00000
     13       1.0594      2.00000
     14       1.1534      2.00000
     15       4.1213      0.00000
     16       4.2955      0.00000
     17       6.7759      0.00000
     18       6.8364      0.00000

 k-point    29 :       0.2500    0.2500    0.2500
  band No.  band energies     occupation 
      1     -28.9739      2.00000
      2     -22.1725      2.00000
      3     -22.1712      2.00000
      4     -22.1649      2.00000
      5     -22.1649      2.00000
      6     -22.1578      2.00000
      7     -22.1578      2.00000
      8     -12.5036      2.00000
      9     -12.5036      2.00000
     10     -12.4982      2.00000
     11      -5.4652      2.00000
     12       0.5948      2.00000
     13       0.5948      2.00000
     14       0.9877      2.00000
     15       5.0060      0.00000
     16       5.3530      0.00000
     17       5.3530      0.00000
     18       6.0228      0.00000


--------------------------------------------------------------------------------------------------------


 soft charge-density along one line, spin component           1
         0         1         2         3         4         5         6         7         8         9
 total charge-density along one line
 
 pseudopotential strength for first ion, spin component:           1
-14.786  -0.006  -0.000  -0.000   0.000  -0.000  -0.000   0.000
 -0.006  -2.052  -0.000  -0.000   0.000  -0.000  -0.000   0.000
 -0.000  -0.000 -17.015   0.000   0.000 -16.760   0.000   0.000
 -0.000  -0.000   0.000 -17.015   0.000   0.000 -16.760   0.000
  0.000   0.000   0.000   0.000 -17.015   0.000   0.000 -16.760
 -0.000  -0.000 -16.760   0.000   0.000 -16.501   0.000   0.000
 -0.000  -0.000   0.000 -16.760   0.000   0.000 -16.501   0.000
  0.000   0.000   0.000   0.000 -16.760   0.000   0.000 -16.501
  0.000   0.000   0.000  -0.000  -0.000   0.000  -0.000  -0.000
  0.000   0.000  -0.000  -0.000  -0.000  -0.000  -0.000  -0.000
  0.000   0.000   0.000  -0.000  -0.000   0.000  -0.000  -0.000
  0.000   0.000  -0.000   0.000  -0.000  -0.000   0.000  -0.000
 -0.000  -0.000   0.000   0.000   0.000   0.000   0.000   0.000
 total augmentation occupancy for first ion, spin component:           1
  2.001  -0.001   0.000   0.000   0.000   0.000   0.000   0.000   0.000  -0.000   0.000   0.000   0.000
 -0.001   0.559   0.000   0.000   0.000   0.000   0.000   0.000   0.000   0.000   0.000   0.000   0.000
  0.000   0.000   4.090   0.000  -0.000  -2.095   0.000  -0.000   0.000   0.000   0.000   0.000   0.000
  0.000   0.000   0.000   4.090  -0.000   0.000  -2.095  -0.000   0.000   0.000   0.000   0.000   0.000
  0.000   0.000   0.000  -0.000   4.090   0.000  -0.000  -2.095   0.000   0.000   0.000   0.000   0.000
  0.000   0.000  -2.095  -0.000   0.000   2.105   0.000  -0.000   0.000   0.000   0.000   0.000   0.000
  0.000   0.000  -0.000  -2.095  -0.000   0.000   2.105   0.000   0.000   0.000   0.000   0.000   0.000
  0.000   0.000   0.000   0.000  -2.095  -0.000  -0.000   2.105   0.000   0.000   0.000   0.000   0.000
 -0.000   0.000   0.000   0.000   0.000   0.000   0.000   0.000   0.004  -0.000   0.000  -0.000  -0.000
 -0.000  -0.000   0.000   0.000   0.000   0.000   0.000   0.000  -0.000   0.004  -0.000  -0.000  -0.000
 -0.000   0.000   0.000   0.000   0.000   0.000   0.000   0.000   0.000   0.000   0.016  -0.000   0.000
  0.000   0.000   0.000   0.000   0.000   0.000   0.000   0.000  -0.000  -0.000   0.000   0.004   0.000
  0.000   0.000   0.000   0.000   0.000   0.000   0.000   0.000  -0.000  -0.000   0.000   0.000   0.016


------------------------ aborting loop because EDIFF is reached ----------------------------------------


    CHARGE:  cpu time    0.0316: real time    0.0316
    FORLOC:  cpu time    0.0059: real time    0.0059
    FORNL :  cpu time    0.0375: real time    0.0375
    STRESS:  cpu time    0.1641: real time    0.1641
    FORCOR:  cpu time    0.0561: real time    0.0561
    FORHAR:  cpu time    0.0147: real time    0.0147
    MIXING:  cpu time    0.0042: real time    0.0042
    OFIELD:  cpu time    0.0001: real time    0.0001

  FORCE on cell =-STRESS in cart. coord.  units (eV):
  Direction    XX          YY          ZZ          XY          YZ          ZX
  --------------------------------------------------------------------------------------
  Alpha Z    50.22068    50.22068    50.22068
  Ewald    -447.34672  -447.34672  -447.34672    -0.00000    -0.00000    -0.00061
  Hartree   230.10363   230.10363   230.10363    -0.00000     0.00000    -0.00034
  E(xc)    -133.14299  -133.14301  -133.14309     0.00000    -0.00000     0.00005
  Local      -9.39658    -9.39653    -9.39647    -0.00000     0.00000     0.00085
  n-local   -17.87362   -18.01533   -20.51831     1.55291    -0.65470     1.19429
  augment    75.80670    75.80664    75.80662    -0.00000     0.00000     0.00009
  Kinetic   253.30556   253.30844   251.06967     2.84284    -1.27229     1.84779
  Fock        0.00000     0.00000     0.00000     0.00000     0.00000     0.00000
  -------------------------------------------------------------------------------------
  Total       0.00350     0.00350     0.00350     0.00000    -0.00000    -0.00000
  in kB       0.04716     0.04716     0.04716     0.00000    -0.00000    -0.00000
  external pressure =        0.05 kB  Pullay stress =        0.00 kB


 VOLUME and BASIS-vectors are now :
 -----------------------------------------------------------------------------
  energy-cutoff  :      520.00
  volume of cell :      118.80
      direct lattice vectors                 reciprocal lattice vectors
     3.901726192 -3.901726192  0.000000000     0.128148408 -0.128148408 -0.128148408
    -3.901726192  0.000000000 -3.901726192     0.000000000  0.000000000 -0.256296816
     3.901726192  3.901726192  0.000000000     0.128148408  0.128148408 -0.128148408

  length of vectors
     5.517874097  5.517874097  5.517874097     0.221959554  0.256296816  0.221959554


 FORCES acting on ions
    electron-ion (+dipol)            ewald-force                    non-local-force                 convergence-correction
 -----------------------------------------------------------------------------------------------
   0.525E-03 -.341E-11 0.187E-03   0.380E-03 0.111E-13 -.292E-03   0.381E-20 0.847E-21 0.000E+00   -.419E-07 0.263E-13 0.852E-08
   -.924E-03 0.784E-03 0.929E-03   -.260E-03 0.454E-03 0.227E-03   0.151E-16 -.152E-16 0.867E-18   0.106E-07 -.641E-07 -.722E-08
   -.924E-03 -.784E-03 0.929E-03   -.260E-03 -.454E-03 0.227E-03   -.271E-19 -.176E-17 0.781E-17   0.106E-07 0.641E-07 -.722E-08
   -.999E-04 0.397E-11 0.104E-03   0.139E-03 -.259E-14 -.162E-03   -.847E-21 0.000E+00 0.000E+00   0.643E-08 -.501E-14 0.216E-08
 -----------------------------------------------------------------------------------------------
   -.142E-02 -.100E-09 0.215E-02   -.226E-15 0.177E-15 0.484E-15   0.151E-16 -.170E-16 0.867E-17   -.143E-07 0.281E-13 -.377E-08
 
 
 POSITION                                       TOTAL-FORCE (eV/Angst)
 -----------------------------------------------------------------------------------
      3.90173      0.00000      0.00000        -0.000000     -0.000000     -0.000000
      1.95087     -1.95087     -1.95087        -0.000000     -0.000000      0.000000
      1.95087      1.95087     -1.95087         0.000000      0.000000      0.000000
      0.00000      0.00000      0.00000        -0.000000     -0.000000     -0.000000
 -----------------------------------------------------------------------------------
    total drift:                               -0.001423     -0.000000      0.002149


--------------------------------------------------------------------------------------------------------



  FREE ENERGIE OF THE ION-ELECTRON SYSTEM (eV)
  ---------------------------------------------------
  free  energy   TOTEN  =        -9.55902169 eV

  energy  without entropy=       -9.55902169  energy(sigma->0) =       -9.55902169
 


--------------------------------------------------------------------------------------------------------


    POTLOK:  cpu time    0.0575: real time    0.0577


--------------------------------------------------------------------------------------------------------


     LOOP+:  cpu time    5.7446: real time    5.7713
    4ORBIT:  cpu time    0.0000: real time    0.0000

 total amount of memory used by VASP MPI-rank0    47494. kBytes
=======================================================================

   base      :      30000. kBytes
   nonl-proj :       4291. kBytes
   fftplans  :       3210. kBytes
   grid      :       5943. kBytes
   one-center:          8. kBytes
   wavefun   :       4042. kBytes
 
  
  
 General timing and accounting informations for this job:
 ========================================================
  
                  Total CPU time used (sec):        6.379
                            User time (sec):        6.193
                          System time (sec):        0.186
                         Elapsed time (sec):        6.469
  
                   Maximum memory used (kb):       96520.
                   Average memory used (kb):           0.
  
                          Minor page faults:        25497
                          Major page faults:            0
                 Voluntary context switches:          325
