<?xml version="1.0" encoding="ISO-8859-1"?>
<modeling>
 <generator>
  <i name="program" type="string">vasp </i>
  <i name="version" type="string">5.4.4.18Apr17-6-g9f103f2a35  </i>
  <i name="subversion" type="string">(build Jun 23 2019 17:35:09) complex            parallel </i>
  <i name="platform" type="string">LinuxIFC </i>
  <i name="date" type="string">2020 01 15 </i>
  <i name="time" type="string">15:43:23 </i>
 </generator>
 <incar>
  <i type="int" name="ISTART">     0</i>
  <i type="string" name="PREC">acc</i>
  <i type="string" name="ALGO"> Normal</i>
  <i type="int" name="ISPIN">     1</i>
  <i type="int" name="NELM">   150</i>
  <i type="int" name="NELMIN">     5</i>
  <i type="int" name="IBRION">    -1</i>
  <i name="EDIFF">      0.00000001</i>
  <i type="int" name="NSW">     0</i>
  <i type="int" name="ISIF">     3</i>
  <i name="ENCUT">    520.00000000</i>
  <i type="logical" name="LREAL"> F  </i>
  <i type="logical" name="LPLANE"> T  </i>
  <i type="int" name="ISMEAR">     0</i>
  <i name="SIGMA">      0.05000000</i>
  <i type="logical" name="LWAVE"> F  </i>
  <i type="logical" name="LCHARG"> F  </i>
  <v type="int" name="KPOINT_BSE">    -1     0     0     0</v>
  <i type="int" name="NELM">   150</i>
  <i type="string" name="GGA"> PE</i>
 </incar>
 <structure name="primitive_cell" >
  <crystal>
   <varray name="basis" >
    <v>       3.90172619      -3.90172619       0.00000000 </v>
    <v>      -3.90172619       0.00000000      -3.90172619 </v>
    <v>       3.90172619       3.90172619       0.00000000 </v>
   </varray>
   <i name="volume">    118.79560202 </i>
   <varray name="rec_basis" >
    <v>       0.12814841      -0.12814841      -0.12814841 </v>
    <v>       0.00000000       0.00000000      -0.25629682 </v>
    <v>       0.12814841       0.12814841      -0.12814841 </v>
   </varray>
  </crystal>
  <varray name="positions" >
   <v>       0.49999987       0.00000000       0.49999987 </v>
   <v>      -0.24999825      -0.49999883       0.25000058 </v>
   <v>       0.25000058      -0.49999883      -0.24999825 </v>
   <v>       0.00000000       0.00000000       0.00000000 </v>
  </varray>
 </structure>
 <varray name="primitive_index" >
  <v type="int" >        1 </v>
  <v type="int" >        2 </v>
  <v type="int" >        3 </v>
  <v type="int" >        4 </v>
 </varray>
 <kpoints>
  <generation param="Gamma">
   <v type="int" name="divisions">       8        8        8 </v>
   <v name="usershift">      0.00000000       0.00000000       0.00000000 </v>
   <v name="genvec1">      0.12500000       0.00000000       0.00000000 </v>
   <v name="genvec2">      0.00000000       0.12500000       0.00000000 </v>
   <v name="genvec3">      0.00000000       0.00000000       0.12500000 </v>
   <v name="shift">      0.00000000       0.00000000       0.00000000 </v>
  </generation>
  <varray name="kpointlist" >
   <v>       0.00000000       0.00000000       0.00000000 </v>
   <v>       0.12500000       0.00000000       0.00000000 </v>
   <v>       0.25000000       0.00000000       0.00000000 </v>
   <v>       0.37500000       0.00000000       0.00000000 </v>
   <v>       0.50000000       0.00000000       0.00000000 </v>
   <v>       0.00000000       0.12500000       0.00000000 </v>
   <v>       0.12500000       0.12500000       0.00000000 </v>
   <v>       0.25000000       0.12500000       0.00000000 </v>
   <v>       0.37500000       0.12500000       0.00000000 </v>
   <v>       0.50000000       0.12500000       0.00000000 </v>
   <v>      -0.37500000       0.12500000       0.00000000 </v>
   <v>      -0.25000000       0.12500000       0.00000000 </v>
   <v>       0.00000000       0.25000000       0.00000000 </v>
   <v>       0.12500000       0.25000000       0.00000000 </v>
   <v>       0.25000000       0.25000000       0.00000000 </v>
   <v>       0.37500000       0.25000000       0.00000000 </v>
   <v>       0.50000000       0.25000000       0.00000000 </v>
   <v>       0.00000000       0.37500000       0.00000000 </v>
   <v>       0.12500000       0.37500000       0.00000000 </v>
   <v>       0.25000000       0.37500000       0.00000000 </v>
   <v>       0.00000000       0.50000000       0.00000000 </v>
   <v>       0.12500000       0.12500000       0.12500000 </v>
   <v>       0.25000000       0.12500000       0.12500000 </v>
   <v>       0.37500000       0.12500000       0.12500000 </v>
   <v>       0.12500000       0.25000000       0.12500000 </v>
   <v>       0.25000000       0.25000000       0.12500000 </v>
   <v>       0.37500000       0.25000000       0.12500000 </v>
   <v>       0.12500000       0.37500000       0.12500000 </v>
   <v>       0.25000000       0.25000000       0.25000000 </v>
  </varray>
  <varray name="weights" >
   <v>       0.00195312 </v>
   <v>       0.01562500 </v>
   <v>       0.01562500 </v>
   <v>       0.01562500 </v>
   <v>       0.00781250 </v>
   <v>       0.01171875 </v>
   <v>       0.04687500 </v>
   <v>       0.04687500 </v>
   <v>       0.04687500 </v>
   <v>       0.04687500 </v>
   <v>       0.04687500 </v>
   <v>       0.02343750 </v>
   <v>       0.01171875 </v>
   <v>       0.04687500 </v>
   <v>       0.04687500 </v>
   <v>       0.04687500 </v>
   <v>       0.02343750 </v>
   <v>       0.01171875 </v>
   <v>       0.04687500 </v>
   <v>       0.02343750 </v>
   <v>       0.00585938 </v>
   <v>       0.04687500 </v>
   <v>       0.09375000 </v>
   <v>       0.04687500 </v>
   <v>       0.04687500 </v>
   <v>       0.09375000 </v>
   <v>       0.04687500 </v>
   <v>       0.02343750 </v>
   <v>       0.01171875 </v>
  </varray>
 </kpoints>
 <parameters>
  <separator name="general" >
   <i type="string" name="SYSTEM">unknown system</i>
   <i type="logical" name="LCOMPAT"> F  </i>
  </separator>
  <separator name="electronic" >
   <i type="string" name="PREC">acc</i>
   <i name="ENMAX">    520.00000000</i>
   <i name="ENAUG">    427.85300000</i>
   <i name="EDIFF">      0.00000001</i>
   <i type="int" name="IALGO">    38</i>
   <i type="int" name="IWAVPR">    10</i>
   <i type="int" name="NBANDS">    18</i>
   <i name="NELECT">     28.00000000</i>
   <i type="int" name="TURBO">     0</i>
   <i type="int" name="IRESTART">     0</i>
   <i type="int" name="NREBOOT">     0</i>
   <i type="int" name="NMIN">     0</i>
   <i name="EREF">      0.00000000</i>
   <separator name="electronic smearing" >
    <i type="int" name="ISMEAR">     0</i>
    <i name="SIGMA">      0.05000000</i>
    <i name="KSPACING">      0.50000000</i>
    <i type="logical" name="KGAMMA"> T  </i>
   </separator>
   <separator name="electronic projectors" >
    <i type="logical" name="LREAL"> F  </i>
    <v name="ROPT">      0.00000000      0.00000000      0.00000000</v>
    <i type="int" name="LMAXPAW">  -100</i>
    <i type="int" name="LMAXMIX">     2</i>
    <i type="logical" name="NLSPLINE"> F  </i>
   </separator>
   <separator name="electronic startup" >
    <i type="int" name="ISTART">     0</i>
    <i type="int" name="ICHARG">     2</i>
    <i type="int" name="INIWAV">     1</i>
   </separator>
   <separator name="electronic spin" >
    <i type="int" name="ISPIN">     1</i>
    <i type="logical" name="LNONCOLLINEAR"> F  </i>
    <v name="MAGMOM">      1.00000000      1.00000000      1.00000000      1.00000000</v>
    <i name="NUPDOWN">     -1.00000000</i>
    <i type="logical" name="LSORBIT"> F  </i>
    <v name="SAXIS">      0.00000000      0.00000000      1.00000000</v>
    <i type="logical" name="LSPIRAL"> F  </i>
    <v name="QSPIRAL">      0.00000000      0.00000000      0.00000000</v>
    <i type="logical" name="LZEROZ"> F  </i>
   </separator>
   <separator name="electronic exchange-correlation" >
    <i type="logical" name="LASPH"> F  </i>
    <i type="logical" name="LMETAGGA"> F  </i>
   </separator>
   <separator name="electronic convergence" >
    <i type="int" name="NELM">   150</i>
    <i type="int" name="NELMDL">    -5</i>
    <i type="int" name="NELMIN">     5</i>
    <i name="ENINI">    520.00000000</i>
    <separator name="electronic convergence detail" >
     <i type="logical" name="LDIAG"> T  </i>
     <i type="logical" name="LSUBROT"> F  </i>
     <i name="WEIMIN">      0.00000000</i>
     <i name="EBREAK">      0.00000000</i>
     <i name="DEPER">      0.30000000</i>
     <i type="int" name="NRMM">     4</i>
     <i name="TIME">      0.40000000</i>
    </separator>
   </separator>
   <separator name="electronic mixer" >
    <i name="AMIX">      0.40000000</i>
    <i name="BMIX">      1.00000000</i>
    <i name="AMIN">      0.10000000</i>
    <i name="AMIX_MAG">      1.60000000</i>
    <i name="BMIX_MAG">      1.00000000</i>
    <separator name="electronic mixer details" >
     <i type="int" name="IMIX">     4</i>
     <i type="logical" name="MIXFIRST"> F  </i>
     <i type="int" name="MAXMIX">   -45</i>
     <i name="WC">    100.00000000</i>
     <i type="int" name="INIMIX">     1</i>
     <i type="int" name="MIXPRE">     1</i>
     <i type="int" name="MREMOVE">     5</i>
    </separator>
   </separator>
   <separator name="electronic dipolcorrection" >
    <i type="logical" name="LDIPOL"> F  </i>
    <i type="logical" name="LMONO"> F  </i>
    <i type="int" name="IDIPOL">     0</i>
    <i name="EPSILON">      1.00000000</i>
    <v name="DIPOL">   -100.00000000   -100.00000000   -100.00000000</v>
    <i name="EFIELD">      0.00000000</i>
   </separator>
  </separator>
  <separator name="grids" >
   <i type="int" name="NGX">    42</i>
   <i type="int" name="NGY">    42</i>
   <i type="int" name="NGZ">    42</i>
   <i type="int" name="NGXF">    84</i>
   <i type="int" name="NGYF">    84</i>
   <i type="int" name="NGZF">    84</i>
   <i type="logical" name="ADDGRID"> F  </i>
  </separator>
  <separator name="ionic" >
   <i type="int" name="NSW">     0</i>
   <i type="int" name="IBRION">    -1</i>
   <i type="int" name="MDALGO">     0</i>
   <i type="int" name="ISIF">     3</i>
   <i name="PSTRESS">      0.00000000</i>
   <i name="EDIFFG">      0.00000010</i>
   <i type="int" name="NFREE">     0</i>
   <i name="POTIM">      0.50000000</i>
   <i name="SMASS">     -3.00000000</i>
   <i name="SCALEE">      1.00000000</i>
  </separator>
  <separator name="ionic md" >
   <i name="TEBEG">      0.00010000</i>
   <i name="TEEND">      0.00010000</i>
   <i type="int" name="NBLOCK">     1</i>
   <i type="int" name="KBLOCK">     1</i>
   <i type="int" name="NPACO">   256</i>
   <i name="APACO">     16.00000000</i>
  </separator>
  <separator name="symmetry" >
   <i type="int" name="ISYM">     2</i>
   <i name="SYMPREC">      0.00001000</i>
  </separator>
  <separator name="dos" >
   <i type="int" name="LORBIT">     0</i>
   <v name="RWIGS">     -1.00000000     -1.00000000     -1.00000000</v>
   <i type="int" name="NEDOS">   301</i>
   <i name="EMIN">     10.00000000</i>
   <i name="EMAX">    -10.00000000</i>
   <i name="EFERMI">      0.00000000</i>
  </separator>
  <separator name="writing" >
   <i type="int" name="NWRITE">     2</i>
   <i type="logical" name="LWAVE"> F  </i>
   <i type="logical" name="LDOWNSAMPLE"> F  </i>
   <i type="logical" name="LCHARG"> F  </i>
   <i type="logical" name="LPARD"> F  </i>
   <i type="logical" name="LVTOT"> F  </i>
   <i type="logical" name="LVHAR"> F  </i>
   <i type="logical" name="LELF"> F  </i>
   <i type="logical" name="LOPTICS"> F  </i>
   <v name="STM">      0.00000000      0.00000000      0.00000000      0.00000000      0.00000000      0.00000000      0.00000000</v>
  </separator>
  <separator name="performance" >
   <i type="int" name="NPAR">     1</i>
   <i type="int" name="NSIM">     4</i>
   <i type="int" name="NBLK">    -1</i>
   <i type="logical" name="LPLANE"> T  </i>
   <i type="logical" name="LSCALAPACK"> T  </i>
   <i type="logical" name="LSCAAWARE"> F  </i>
   <i type="logical" name="LSCALU"> F  </i>
   <i type="logical" name="LASYNC"> F  </i>
   <i type="logical" name="LORBITALREAL"> F  </i>
  </separator>
  <separator name="miscellaneous" >
   <i type="int" name="IDIOT">     3</i>
   <i type="int" name="ISPECIAL">     0</i>
   <i type="logical" name="LMUSIC"> F  </i>
   <v name="POMASS">     39.09800000     22.99000000    121.75000000</v>
   <v name="DARWINR">      0.00000000      0.00000000      0.00000000</v>
   <v name="DARWINV">      1.00000000      1.00000000      1.00000000</v>
   <i type="logical" name="LCORR"> T  </i>
  </separator>
  <i type="logical" name="GGA_COMPAT"> T  </i>
  <i type="logical" name="LBERRY"> F  </i>
  <i type="int" name="ICORELEVEL">     0</i>
  <i type="logical" name="LDAU"> F  </i>
  <i type="int" name="I_CONSTRAINED_M">     0</i>
  <separator name="electronic exchange-correlation" >
   <i type="string" name="GGA">PE</i>
   <i type="int" name="VOSKOWN">     0</i>
   <i type="logical" name="LHFCALC"> F  </i>
   <i type="string" name="PRECFOCK"></i>
   <i type="logical" name="LSYMGRAD"> F  </i>
   <i type="logical" name="LHFONE"> F  </i>
   <i type="logical" name="LRHFCALC"> F  </i>
   <i type="logical" name="LTHOMAS"> F  </i>
   <i type="logical" name="LMODELHF"> F  </i>
   <i name="ENCUT4O">     -1.00000000</i>
   <i type="int" name="EXXOEP">     0</i>
   <i type="int" name="FOURORBIT">     0</i>
   <i name="AEXX">      0.00000000</i>
   <i name="HFALPHA">      0.00000000</i>
   <i name="MCALPHA">      0.00000000</i>
   <i name="ALDAX">      1.00000000</i>
   <i name="AGGAX">      1.00000000</i>
   <i name="ALDAC">      1.00000000</i>
   <i name="AGGAC">      1.00000000</i>
   <i type="int" name="NKREDX">     1</i>
   <i type="int" name="NKREDY">     1</i>
   <i type="int" name="NKREDZ">     1</i>
   <i type="logical" name="SHIFTRED"> F  </i>
   <i type="logical" name="ODDONLY"> F  </i>
   <i type="logical" name="EVENONLY"> F  </i>
   <i type="int" name="LMAXFOCK">     0</i>
   <i type="int" name="NMAXFOCKAE">     0</i>
   <i type="logical" name="LFOCKAEDFT"> F  </i>
   <i name="HFSCREEN">      0.00000000</i>
   <i name="HFSCREENC">      0.00000000</i>
   <i type="int" name="NBANDSGWLOW">     0</i>
  </separator>
  <separator name="vdW DFT" >
   <i type="logical" name="LUSE_VDW"> F  </i>
   <i name="Zab_VDW">     -0.84910000</i>
   <i name="PARAM1">      0.12340000</i>
   <i name="PARAM2">      1.00000000</i>
   <i name="PARAM3">      0.00000000</i>
  </separator>
  <separator name="model GW" >
   <i type="int" name="MODEL_GW">     0</i>
   <i name="MODEL_EPS0">     17.81934030</i>
   <i name="MODEL_ALPHA">      1.00000000</i>
  </separator>
  <separator name="linear response parameters" >
   <i type="logical" name="LEPSILON"> F  </i>
   <i type="logical" name="LRPA"> F  </i>
   <i type="logical" name="LNABLA"> F  </i>
   <i type="logical" name="LVEL"> F  </i>
   <i type="int" name="KINTER">     0</i>
   <i name="CSHIFT">      0.10000000</i>
   <i name="OMEGAMAX">     -1.00000000</i>
   <i name="DEG_THRESHOLD">      0.00200000</i>
   <i name="RTIME">     -0.10000000</i>
   <i name="WPLASMAI">      0.00000000</i>
   <v name="DFIELD">      0.00000000      0.00000000      0.00000000</v>
   <v name="WPLASMA">      0.00000000      0.00000000      0.00000000      0.00000000      0.00000000      0.00000000      0.00000000      0.00000000      0.00000000</v>
  </separator>
  <separator name="orbital magnetization" >
   <i type="logical" name="NUCIND"> F  </i>
   <v name="MAGPOS">      0.00000000      0.00000000      0.00000000</v>
   <i type="logical" name="LNICSALL"> T  </i>
   <i type="logical" name="ORBITALMAG"> F  </i>
   <i type="logical" name="LMAGBLOCH"> F  </i>
   <i type="logical" name="LCHIMAG"> F  </i>
   <i type="logical" name="LGAUGE"> T  </i>
   <i type="int" name="MAGATOM">     0</i>
   <v name="MAGDIPOL">      0.00000000      0.00000000      0.00000000</v>
   <v name="AVECCONST">      0.00000000      0.00000000      0.00000000</v>
  </separator>
  <separator name="response functions" >
   <i type="logical" name="LADDER"> F  </i>
   <i type="logical" name="LRPAFORCE"> F  </i>
   <i type="logical" name="LFXC"> F  </i>
   <i type="logical" name="LHARTREE"> T  </i>
   <i type="int" name="IBSE">     0</i>
   <v type="int" name="KPOINT">    -1     0     0     0</v>
   <i type="logical" name="LTCTE"> F  </i>
   <i type="logical" name="LTETE"> F  </i>
   <i type="logical" name="LTRIPLET"> F  </i>
   <i type="logical" name="LFXCEPS"> F  </i>
   <i type="logical" name="LFXHEG"> F  </i>
   <i type="int" name="NATURALO">     2</i>
   <i type="logical" name="L2ORDER"> F  </i>
   <i type="logical" name="LMP2LT"> F  </i>
   <i type="logical" name="LUSEW"> F  </i>
   <i name="ENCUTGW">     -2.00000000</i>
   <i name="ENCUTGWSOFT">     -2.00000000</i>
   <i name="ENCUTLF">     -1.00000000</i>
   <i type="int" name="LMAXMP2">    -1</i>
   <i name="SCISSOR">      0.00000000</i>
   <i type="int" name="NOMEGA">     0</i>
   <i type="int" name="NOMEGAR">     0</i>
   <i type="int" name="NBANDSGW">    -1</i>
   <i type="int" name="NBANDSO">    -1</i>
   <i type="int" name="NBANDSV">    -1</i>
   <i type="int" name="NELM">   150</i>
   <i type="int" name="NELMHF">     1</i>
   <i type="int" name="DIM">     3</i>
   <i type="int" name="ANTIRES">     0</i>
   <i name="OMEGAMAX">    -30.00000000</i>
   <i name="OMEGAMIN">    -30.00000000</i>
   <i name="OMEGATL">   -200.00000000</i>
   <i type="int" name="OMEGAGRID">   140</i>
   <i name="CSHIFT">     -0.10000000</i>
   <i type="logical" name="SELFENERGY"> F  </i>
   <i type="logical" name="LSPECTRAL"> F  </i>
   <i type="logical" name="LSPECTRALGW"> F  </i>
   <i type="logical" name="LSINGLES"> F  </i>
   <i type="logical" name="LFERMIGW"> F  </i>
   <i type="logical" name="ODDONLYGW"> F  </i>
   <i type="logical" name="EVENONLYGW"> F  </i>
   <i type="int" name="NKREDLFX">     1</i>
   <i type="int" name="NKREDLFY">     1</i>
   <i type="int" name="NKREDLFZ">     1</i>
   <i type="int" name="MAXMEM">  2800</i>
   <i type="int" name="TELESCOPE">     0</i>
   <i type="int" name="TAUPAR">     1</i>
   <i type="int" name="OMEGAPAR">    -1</i>
   <i name="LAMBDA">      1.00000000</i>
  </separator>
  <separator name="External order field" >
   <i name="OFIELD_KAPPA">      0.00000000</i>
   <v name="OFIELD_K">      0.00000000      0.00000000      0.00000000</v>
   <i name="OFIELD_Q6_NEAR">      0.00000000</i>
   <i name="OFIELD_Q6_FAR">      0.00000000</i>
   <i name="OFIELD_A">      0.00000000</i>
  </separator>
 </parameters>
 <atominfo>
  <atoms>       4 </atoms>
  <types>       3 </types>
  <array name="atoms" >
   <dimension dim="1">ion</dimension>
   <field type="string">element</field>
   <field type="int">atomtype</field>
   <set>
    <rc><c>K </c><c>   1</c></rc>
    <rc><c>Na</c><c>   2</c></rc>
    <rc><c>Na</c><c>   2</c></rc>
    <rc><c>Sb</c><c>   3</c></rc>
   </set>
  </array>
  <array name="atomtypes" >
   <dimension dim="1">type</dimension>
   <field type="int">atomspertype</field>
   <field type="string">element</field>
   <field>mass</field>
   <field>valence</field>
   <field type="string">pseudopotential</field>
   <set>
    <rc><c>   1</c><c>K </c><c>     39.09800000</c><c>      9.00000000</c><c>  PAW_PBE K_sv 06Sep2000                </c></rc>
    <rc><c>   2</c><c>Na</c><c>     22.99000000</c><c>      7.00000000</c><c>  PAW_PBE Na_pv 19Sep2006               </c></rc>
    <rc><c>   1</c><c>Sb</c><c>    121.75000000</c><c>      5.00000000</c><c>  PAW_PBE Sb 06Sep2000                  </c></rc>
   </set>
  </array>
 </atominfo>
 <structure name="initialpos" >
  <crystal>
   <varray name="basis" >
    <v>       3.90172619      -3.90172619       0.00000000 </v>
    <v>      -3.90172619       0.00000000      -3.90172619 </v>
    <v>       3.90172619       3.90172619       0.00000000 </v>
   </varray>
   <i name="volume">    118.79560202 </i>
   <varray name="rec_basis" >
    <v>       0.12814841      -0.12814841      -0.12814841 </v>
    <v>       0.00000000       0.00000000      -0.25629682 </v>
    <v>       0.12814841       0.12814841      -0.12814841 </v>
   </varray>
  </crystal>
  <varray name="positions" >
   <v>       0.49999987       0.00000000       0.49999987 </v>
   <v>       0.75000175       0.50000117       0.25000058 </v>
   <v>       0.25000058       0.50000117       0.75000175 </v>
   <v>       0.00000000       0.00000000       0.00000000 </v>
  </varray>
 </structure>
 <calculation>
  <scstep>
   <time name="dav">    0.22    0.22</time>
   <time name="total">    0.28    0.28</time>
   <energy>
    <i name="alphaZ">     50.22067890 </i>
    <i name="ewald">  -1342.03899423 </i>
    <i name="hartreedc">   -703.24206757 </i>
    <i name="XCdc">     38.69938194 </i>
    <i name="pawpsdc">   1762.39966399 </i>
    <i name="pawaedc">  -1880.54449946 </i>
    <i name="eentropy">     -0.00101394 </i>
    <i name="bandstr">   -153.05754362 </i>
    <i name="atom">   2457.04034448 </i>
    <i name="e_fr_energy">    229.47595050 </i>
    <i name="e_wo_entrp">    229.47696443 </i>
    <i name="e_0_energy">    229.47645746 </i>
   </energy>
  </scstep>
  <scstep>
   <time name="dav">    0.21    0.22</time>
   <time name="total">    0.21    0.22</time>
   <energy>
    <i name="e_fr_energy">      7.65520638 </i>
    <i name="e_wo_entrp">      7.65520929 </i>
    <i name="e_0_energy">      7.65520784 </i>
   </energy>
  </scstep>
  <scstep>
   <time name="dav">    0.30    0.30</time>
   <time name="total">    0.30    0.30</time>
   <energy>
    <i name="e_fr_energy">     -9.55166201 </i>
    <i name="e_wo_entrp">     -9.55166201 </i>
    <i name="e_0_energy">     -9.55166201 </i>
   </energy>
  </scstep>
  <scstep>
   <time name="dav">    0.25    0.25</time>
   <time name="total">    0.25    0.25</time>
   <energy>
    <i name="e_fr_energy">    -10.06355505 </i>
    <i name="e_wo_entrp">    -10.06355505 </i>
    <i name="e_0_energy">    -10.06355505 </i>
   </energy>
  </scstep>
  <scstep>
   <time name="dav">    0.30    0.30</time>
   <time name="total">    0.35    0.35</time>
   <energy>
    <i name="e_fr_energy">    -10.07848229 </i>
    <i name="e_wo_entrp">    -10.07848229 </i>
    <i name="e_0_energy">    -10.07848229 </i>
   </energy>
  </scstep>
  <scstep>
   <time name="dav">    0.24    0.24</time>
   <time name="total">    0.34    0.34</time>
   <energy>
    <i name="e_fr_energy">     -9.63178829 </i>
    <i name="e_wo_entrp">     -9.63178829 </i>
    <i name="e_0_energy">     -9.63178829 </i>
   </energy>
  </scstep>
  <scstep>
   <time name="dav">    0.26    0.26</time>
   <time name="total">    0.35    0.36</time>
   <energy>
    <i name="e_fr_energy">     -9.55929635 </i>
    <i name="e_wo_entrp">     -9.55929635 </i>
    <i name="e_0_energy">     -9.55929635 </i>
   </energy>
  </scstep>
  <scstep>
   <time name="dav">    0.28    0.29</time>
   <time name="total">    0.38    0.38</time>
   <energy>
    <i name="e_fr_energy">     -9.55970574 </i>
    <i name="e_wo_entrp">     -9.55970574 </i>
    <i name="e_0_energy">     -9.55970574 </i>
   </energy>
  </scstep>
  <scstep>
   <time name="dav">    0.25    0.25</time>
   <time name="total">    0.35    0.35</time>
   <energy>
    <i name="e_fr_energy">     -9.55890122 </i>
    <i name="e_wo_entrp">     -9.55890122 </i>
    <i name="e_0_energy">     -9.55890122 </i>
   </energy>
  </scstep>
  <scstep>
   <time name="dav">    0.30    0.30</time>
   <time name="total">    0.39    0.39</time>
   <energy>
    <i name="e_fr_energy">     -9.55901696 </i>
    <i name="e_wo_entrp">     -9.55901696 </i>
    <i name="e_0_energy">     -9.55901696 </i>
   </energy>
  </scstep>
  <scstep>
   <time name="dav">    0.32    0.32</time>
   <time name="total">    0.41    0.41</time>
   <energy>
    <i name="e_fr_energy">     -9.55902172 </i>
    <i name="e_wo_entrp">     -9.55902172 </i>
    <i name="e_0_energy">     -9.55902172 </i>
   </energy>
  </scstep>
  <scstep>
   <time name="dav">    0.26    0.26</time>
   <time name="total">    0.36    0.36</time>
   <energy>
    <i name="e_fr_energy">     -9.55902167 </i>
    <i name="e_wo_entrp">     -9.55902167 </i>
    <i name="e_0_energy">     -9.55902167 </i>
   </energy>
  </scstep>
  <scstep>
   <time name="dav">    0.27    0.27</time>
   <time name="total">    0.36    0.36</time>
   <energy>
    <i name="e_fr_energy">     -9.55902168 </i>
    <i name="e_wo_entrp">     -9.55902168 </i>
    <i name="e_0_energy">     -9.55902168 </i>
   </energy>
  </scstep>
  <scstep>
   <time name="dav">    0.24    0.24</time>
   <time name="total">    0.33    0.33</time>
   <energy>
    <i name="e_fr_energy">     -9.55902167 </i>
    <i name="e_wo_entrp">     -9.55902167 </i>
    <i name="e_0_energy">     -9.55902167 </i>
   </energy>
  </scstep>
  <scstep>
   <time name="dav">    0.16    0.16</time>
   <time name="total">    0.25    0.25</time>
   <energy>
    <i name="e_fr_energy">     -9.55902168 </i>
    <i name="e_wo_entrp">     -9.55902168 </i>
    <i name="e_0_energy">     -9.55902168 </i>
   </energy>
  </scstep>
  <scstep>
   <time name="dav">    0.16    0.16</time>
   <time name="total">    0.25    0.25</time>
   <energy>
    <i name="e_fr_energy">     -9.55902169 </i>
    <i name="e_wo_entrp">     -9.55902169 </i>
    <i name="e_0_energy">     -9.55902169 </i>
   </energy>
  </scstep>
  <scstep>
   <time name="dav">    0.16    0.16</time>
   <time name="total">    0.21    0.22</time>
   <energy>
    <i name="alphaZ">     50.22067890 </i>
    <i name="ewald">  -1342.03899423 </i>
    <i name="hartreedc">   -690.31091777 </i>
    <i name="XCdc">     38.96487434 </i>
    <i name="pawpsdc">   1907.20433271 </i>
    <i name="pawaedc">  -2026.61676797 </i>
    <i name="eentropy">     -0.00000000 </i>
    <i name="bandstr">   -404.02257215 </i>
    <i name="atom">   2457.04034448 </i>
    <i name="e_fr_energy">     -9.55902169 </i>
    <i name="e_wo_entrp">     -9.55902169 </i>
    <i name="e_0_energy">     -9.55902169 </i>
   </energy>
  </scstep>
  <structure>
   <crystal>
    <varray name="basis" >
     <v>       3.90172619      -3.90172619       0.00000000 </v>
     <v>      -3.90172619       0.00000000      -3.90172619 </v>
     <v>       3.90172619       3.90172619       0.00000000 </v>
    </varray>
    <i name="volume">    118.79560202 </i>
    <varray name="rec_basis" >
     <v>       0.12814841      -0.12814841      -0.12814841 </v>
     <v>       0.00000000       0.00000000      -0.25629682 </v>
     <v>       0.12814841       0.12814841      -0.12814841 </v>
    </varray>
   </crystal>
   <varray name="positions" >
    <v>       0.49999987       0.00000000       0.49999987 </v>
    <v>       0.75000175       0.50000117       0.25000058 </v>
    <v>       0.25000058       0.50000117       0.75000175 </v>
    <v>       0.00000000       0.00000000       0.00000000 </v>
   </varray>
  </structure>
  <varray name="forces" >
   <v>      -0.00000000      -0.00000000      -0.00000000 </v>
   <v>      -0.00000000      -0.00000000       0.00000000 </v>
   <v>       0.00000000       0.00000000       0.00000000 </v>
   <v>      -0.00000000      -0.00000000      -0.00000000 </v>
  </varray>
  <varray name="stress" >
   <v>       0.04716282      -0.00000000      -0.00000000 </v>
   <v>       0.00000000       0.04716282       0.00000000 </v>
   <v>      -0.00000000      -0.00000000       0.04716282 </v>
  </varray>
  <energy>
   <i name="e_fr_energy">     -9.55902169 </i>
   <i name="e_wo_entrp">     -9.55902169 </i>
   <i name="e_0_energy">     -0.00000000 </i>
  </energy>
  <time name="totalsc">    5.74    5.77</time>
  <eigenvalues>
   <array>
    <dimension dim="1">band</dimension>
    <dimension dim="2">kpoint</dimension>
    <dimension dim="3">spin</dimension>
    <field>eigene</field>
    <field>occ</field>
    <set>
     <set comment="spin 1">
      <set comment="kpoint 1">
       <r>  -28.9743    1.0000 </r>
       <r>  -22.1695    1.0000 </r>
       <r>  -22.1695    1.0000 </r>
       <r>  -22.1695    1.0000 </r>
       <r>  -22.1597    1.0000 </r>
       <r>  -22.1597    1.0000 </r>
       <r>  -22.1597    1.0000 </r>
       <r>  -12.4922    1.0000 </r>
       <r>  -12.4922    1.0000 </r>
       <r>  -12.4922    1.0000 </r>
       <r>   -5.8463    1.0000 </r>
       <r>    2.0816    1.0000 </r>
       <r>    2.0816    1.0000 </r>
       <r>    2.0816    1.0000 </r>
       <r>    2.7374    0.0000 </r>
       <r>    4.8620    0.0000 </r>
       <r>    4.8620    0.0000 </r>
       <r>    4.8620    0.0000 </r>
      </set>
      <set comment="kpoint 2">
       <r>  -28.9742    1.0000 </r>
       <r>  -22.1693    1.0000 </r>
       <r>  -22.1692    1.0000 </r>
       <r>  -22.1692    1.0000 </r>
       <r>  -22.1601    1.0000 </r>
       <r>  -22.1601    1.0000 </r>
       <r>  -22.1600    1.0000 </r>
       <r>  -12.4954    1.0000 </r>
       <r>  -12.4924    1.0000 </r>
       <r>  -12.4924    1.0000 </r>
       <r>   -5.8016    1.0000 </r>
       <r>    1.3688    1.0000 </r>
       <r>    1.9916    1.0000 </r>
       <r>    1.9917    1.0000 </r>
       <r>    3.3867    0.0000 </r>
       <r>    4.9662    0.0000 </r>
       <r>    5.0215    0.0000 </r>
       <r>    5.0215    0.0000 </r>
      </set>
      <set comment="kpoint 3">
       <r>  -28.9741    1.0000 </r>
       <r>  -22.1684    1.0000 </r>
       <r>  -22.1682    1.0000 </r>
       <r>  -22.1682    1.0000 </r>
       <r>  -22.1612    1.0000 </r>
       <r>  -22.1612    1.0000 </r>
       <r>  -22.1611    1.0000 </r>
       <r>  -12.5029    1.0000 </r>
       <r>  -12.4928    1.0000 </r>
       <r>  -12.4928    1.0000 </r>
       <r>   -5.6887    1.0000 </r>
       <r>    0.5561    1.0000 </r>
       <r>    1.8039    1.0000 </r>
       <r>    1.8039    1.0000 </r>
       <r>    3.7928    0.0000 </r>
       <r>    5.3810    0.0000 </r>
       <r>    5.3810    0.0000 </r>
       <r>    5.6419    0.0000 </r>
      </set>
      <set comment="kpoint 4">
       <r>  -28.9740    1.0000 </r>
       <r>  -22.1670    1.0000 </r>
       <r>  -22.1666    1.0000 </r>
       <r>  -22.1666    1.0000 </r>
       <r>  -22.1629    1.0000 </r>
       <r>  -22.1628    1.0000 </r>
       <r>  -22.1628    1.0000 </r>
       <r>  -12.5103    1.0000 </r>
       <r>  -12.4932    1.0000 </r>
       <r>  -12.4932    1.0000 </r>
       <r>   -5.5679    1.0000 </r>
       <r>   -0.0054    1.0000 </r>
       <r>    1.6450    1.0000 </r>
       <r>    1.6450    1.0000 </r>
       <r>    3.8734    0.0000 </r>
       <r>    5.7285    0.0000 </r>
       <r>    5.7285    0.0000 </r>
       <r>    6.6175    0.0000 </r>
      </set>
      <set comment="kpoint 5">
       <r>  -28.9740    1.0000 </r>
       <r>  -22.1654    1.0000 </r>
       <r>  -22.1648    1.0000 </r>
       <r>  -22.1648    1.0000 </r>
       <r>  -22.1647    1.0000 </r>
       <r>  -22.1647    1.0000 </r>
       <r>  -22.1644    1.0000 </r>
       <r>  -12.5133    1.0000 </r>
       <r>  -12.4934    1.0000 </r>
       <r>  -12.4934    1.0000 </r>
       <r>   -5.5150    1.0000 </r>
       <r>   -0.2074    1.0000 </r>
       <r>    1.5853    1.0000 </r>
       <r>    1.5854    1.0000 </r>
       <r>    3.8971    0.0000 </r>
       <r>    5.8789    0.0000 </r>
       <r>    5.8789    0.0000 </r>
       <r>    6.6241    0.0000 </r>
      </set>
      <set comment="kpoint 6">
       <r>  -28.9742    1.0000 </r>
       <r>  -22.1698    1.0000 </r>
       <r>  -22.1698    1.0000 </r>
       <r>  -22.1678    1.0000 </r>
       <r>  -22.1615    1.0000 </r>
       <r>  -22.1595    1.0000 </r>
       <r>  -22.1595    1.0000 </r>
       <r>  -12.4953    1.0000 </r>
       <r>  -12.4930    1.0000 </r>
       <r>  -12.4930    1.0000 </r>
       <r>   -5.7880    1.0000 </r>
       <r>    1.2980    1.0000 </r>
       <r>    1.9228    1.0000 </r>
       <r>    1.9228    1.0000 </r>
       <r>    3.5720    0.0000 </r>
       <r>    4.5761    0.0000 </r>
       <r>    5.2657    0.0000 </r>
       <r>    5.2657    0.0000 </r>
      </set>
      <set comment="kpoint 7">
       <r>  -28.9741    1.0000 </r>
       <r>  -22.1698    1.0000 </r>
       <r>  -22.1697    1.0000 </r>
       <r>  -22.1659    1.0000 </r>
       <r>  -22.1635    1.0000 </r>
       <r>  -22.1597    1.0000 </r>
       <r>  -22.1597    1.0000 </r>
       <r>  -12.5007    1.0000 </r>
       <r>  -12.4937    1.0000 </r>
       <r>  -12.4934    1.0000 </r>
       <r>   -5.7013    1.0000 </r>
       <r>    0.7213    1.0000 </r>
       <r>    1.7314    1.0000 </r>
       <r>    1.7596    1.0000 </r>
       <r>    4.0174    0.0000 </r>
       <r>    4.6217    0.0000 </r>
       <r>    5.6735    0.0000 </r>
       <r>    5.6889    0.0000 </r>
      </set>
      <set comment="kpoint 8">
       <r>  -28.9741    1.0000 </r>
       <r>  -22.1689    1.0000 </r>
       <r>  -22.1688    1.0000 </r>
       <r>  -22.1657    1.0000 </r>
       <r>  -22.1638    1.0000 </r>
       <r>  -22.1608    1.0000 </r>
       <r>  -22.1607    1.0000 </r>
       <r>  -12.5075    1.0000 </r>
       <r>  -12.4942    1.0000 </r>
       <r>  -12.4941    1.0000 </r>
       <r>   -5.5864    1.0000 </r>
       <r>    0.1866    1.0000 </r>
       <r>    1.4926    1.0000 </r>
       <r>    1.6116    1.0000 </r>
       <r>    4.1318    0.0000 </r>
       <r>    5.2463    0.0000 </r>
       <r>    5.8770    0.0000 </r>
       <r>    5.9662    0.0000 </r>
      </set>
      <set comment="kpoint 9">
       <r>  -28.9740    1.0000 </r>
       <r>  -22.1680    1.0000 </r>
       <r>  -22.1673    1.0000 </r>
       <r>  -22.1671    1.0000 </r>
       <r>  -22.1625    1.0000 </r>
       <r>  -22.1623    1.0000 </r>
       <r>  -22.1619    1.0000 </r>
       <r>  -12.5116    1.0000 </r>
       <r>  -12.4951    1.0000 </r>
       <r>  -12.4940    1.0000 </r>
       <r>   -5.5114    1.0000 </r>
       <r>   -0.0937    1.0000 </r>
       <r>    1.3366    1.0000 </r>
       <r>    1.5474    1.0000 </r>
       <r>    4.2255    0.0000 </r>
       <r>    5.4145    0.0000 </r>
       <r>    6.0648    0.0000 </r>
       <r>    6.4585    0.0000 </r>
      </set>
      <set comment="kpoint 10">
       <r>  -28.9740    1.0000 </r>
       <r>  -22.1694    1.0000 </r>
       <r>  -22.1653    1.0000 </r>
       <r>  -22.1652    1.0000 </r>
       <r>  -22.1645    1.0000 </r>
       <r>  -22.1642    1.0000 </r>
       <r>  -22.1603    1.0000 </r>
       <r>  -12.5106    1.0000 </r>
       <r>  -12.4956    1.0000 </r>
       <r>  -12.4934    1.0000 </r>
       <r>   -5.5273    1.0000 </r>
       <r>   -0.0350    1.0000 </r>
       <r>    1.3182    1.0000 </r>
       <r>    1.5921    1.0000 </r>
       <r>    4.2762    0.0000 </r>
       <r>    5.4494    0.0000 </r>
       <r>    5.8741    0.0000 </r>
       <r>    6.5641    0.0000 </r>
      </set>
      <set comment="kpoint 11">
       <r>  -28.9741    1.0000 </r>
       <r>  -22.1702    1.0000 </r>
       <r>  -22.1665    1.0000 </r>
       <r>  -22.1661    1.0000 </r>
       <r>  -22.1633    1.0000 </r>
       <r>  -22.1631    1.0000 </r>
       <r>  -22.1594    1.0000 </r>
       <r>  -12.5054    1.0000 </r>
       <r>  -12.4952    1.0000 </r>
       <r>  -12.4927    1.0000 </r>
       <r>   -5.6227    1.0000 </r>
       <r>    0.3400    1.0000 </r>
       <r>    1.4536    1.0000 </r>
       <r>    1.7316    1.0000 </r>
       <r>    4.2300    0.0000 </r>
       <r>    5.3896    0.0000 </r>
       <r>    5.4718    0.0000 </r>
       <r>    5.7857    0.0000 </r>
      </set>
      <set comment="kpoint 12">
       <r>  -28.9742    1.0000 </r>
       <r>  -22.1701    1.0000 </r>
       <r>  -22.1681    1.0000 </r>
       <r>  -22.1679    1.0000 </r>
       <r>  -22.1614    1.0000 </r>
       <r>  -22.1613    1.0000 </r>
       <r>  -22.1593    1.0000 </r>
       <r>  -12.4990    1.0000 </r>
       <r>  -12.4939    1.0000 </r>
       <r>  -12.4923    1.0000 </r>
       <r>   -5.7354    1.0000 </r>
       <r>    0.8959    1.0000 </r>
       <r>    1.7309    1.0000 </r>
       <r>    1.9028    1.0000 </r>
       <r>    3.8943    0.0000 </r>
       <r>    4.9200    0.0000 </r>
       <r>    5.1168    0.0000 </r>
       <r>    5.5586    0.0000 </r>
      </set>
      <set comment="kpoint 13">
       <r>  -28.9741    1.0000 </r>
       <r>  -22.1705    1.0000 </r>
       <r>  -22.1705    1.0000 </r>
       <r>  -22.1660    1.0000 </r>
       <r>  -22.1634    1.0000 </r>
       <r>  -22.1590    1.0000 </r>
       <r>  -22.1590    1.0000 </r>
       <r>  -12.5020    1.0000 </r>
       <r>  -12.4948    1.0000 </r>
       <r>  -12.4948    1.0000 </r>
       <r>   -5.6538    1.0000 </r>
       <r>    0.5762    1.0000 </r>
       <r>    1.6378    1.0000 </r>
       <r>    1.6378    1.0000 </r>
       <r>    4.0722    0.0000 </r>
       <r>    4.2246    0.0000 </r>
       <r>    6.2508    0.0000 </r>
       <r>    6.2532    0.0000 </r>
      </set>
      <set comment="kpoint 14">
       <r>  -28.9740    1.0000 </r>
       <r>  -22.1705    1.0000 </r>
       <r>  -22.1704    1.0000 </r>
       <r>  -22.1683    1.0000 </r>
       <r>  -22.1612    1.0000 </r>
       <r>  -22.1592    1.0000 </r>
       <r>  -22.1592    1.0000 </r>
       <r>  -12.5060    1.0000 </r>
       <r>  -12.4962    1.0000 </r>
       <r>  -12.4955    1.0000 </r>
       <r>   -5.5716    1.0000 </r>
       <r>    0.3114    1.0000 </r>
       <r>    1.3702    1.0000 </r>
       <r>    1.5192    1.0000 </r>
       <r>    4.0454    0.0000 </r>
       <r>    4.5014    0.0000 </r>
       <r>    6.0436    0.0000 </r>
       <r>    6.5112    0.0000 </r>
      </set>
      <set comment="kpoint 15">
       <r>  -28.9740    1.0000 </r>
       <r>  -22.1704    1.0000 </r>
       <r>  -22.1695    1.0000 </r>
       <r>  -22.1692    1.0000 </r>
       <r>  -22.1604    1.0000 </r>
       <r>  -22.1602    1.0000 </r>
       <r>  -22.1594    1.0000 </r>
       <r>  -12.5084    1.0000 </r>
       <r>  -12.4985    1.0000 </r>
       <r>  -12.4954    1.0000 </r>
       <r>   -5.5019    1.0000 </r>
       <r>    0.1617    1.0000 </r>
       <r>    0.9980    1.0000 </r>
       <r>    1.4624    1.0000 </r>
       <r>    4.1890    0.0000 </r>
       <r>    5.2736    0.0000 </r>
       <r>    5.7708    0.0000 </r>
       <r>    6.5540    0.0000 </r>
      </set>
      <set comment="kpoint 16">
       <r>  -28.9740    1.0000 </r>
       <r>  -22.1713    1.0000 </r>
       <r>  -22.1678    1.0000 </r>
       <r>  -22.1675    1.0000 </r>
       <r>  -22.1622    1.0000 </r>
       <r>  -22.1618    1.0000 </r>
       <r>  -22.1584    1.0000 </r>
       <r>  -12.5079    1.0000 </r>
       <r>  -12.5006    1.0000 </r>
       <r>  -12.4945    1.0000 </r>
       <r>   -5.4882    1.0000 </r>
       <r>    0.1641    1.0000 </r>
       <r>    0.8048    1.0000 </r>
       <r>    1.4922    1.0000 </r>
       <r>    4.5060    0.0000 </r>
       <r>    5.5041    0.0000 </r>
       <r>    6.2877    0.0000 </r>
       <r>    6.3540    0.0000 </r>
      </set>
      <set comment="kpoint 17">
       <r>  -28.9740    1.0000 </r>
       <r>  -22.1712    1.0000 </r>
       <r>  -22.1656    1.0000 </r>
       <r>  -22.1653    1.0000 </r>
       <r>  -22.1644    1.0000 </r>
       <r>  -22.1639    1.0000 </r>
       <r>  -22.1584    1.0000 </r>
       <r>  -12.5067    1.0000 </r>
       <r>  -12.4992    1.0000 </r>
       <r>  -12.4934    1.0000 </r>
       <r>   -5.5394    1.0000 </r>
       <r>    0.2212    1.0000 </r>
       <r>    0.9861    1.0000 </r>
       <r>    1.5988    1.0000 </r>
       <r>    4.8190    0.0000 </r>
       <r>    5.4432    0.0000 </r>
       <r>    5.5699    0.0000 </r>
       <r>    5.8692    0.0000 </r>
      </set>
      <set comment="kpoint 18">
       <r>  -28.9740    1.0000 </r>
       <r>  -22.1712    1.0000 </r>
       <r>  -22.1712    1.0000 </r>
       <r>  -22.1704    1.0000 </r>
       <r>  -22.1591    1.0000 </r>
       <r>  -22.1585    1.0000 </r>
       <r>  -22.1585    1.0000 </r>
       <r>  -12.5077    1.0000 </r>
       <r>  -12.4967    1.0000 </r>
       <r>  -12.4967    1.0000 </r>
       <r>   -5.5319    1.0000 </r>
       <r>    0.2357    1.0000 </r>
       <r>    1.4282    1.0000 </r>
       <r>    1.4282    1.0000 </r>
       <r>    3.6964    0.0000 </r>
       <r>    4.0349    0.0000 </r>
       <r>    6.7664    0.0000 </r>
       <r>    7.0034    0.0000 </r>
      </set>
      <set comment="kpoint 19">
       <r>  -28.9739    1.0000 </r>
       <r>  -22.1718    1.0000 </r>
       <r>  -22.1710    1.0000 </r>
       <r>  -22.1708    1.0000 </r>
       <r>  -22.1589    1.0000 </r>
       <r>  -22.1588    1.0000 </r>
       <r>  -22.1578    1.0000 </r>
       <r>  -12.5085    1.0000 </r>
       <r>  -12.4986    1.0000 </r>
       <r>  -12.4969    1.0000 </r>
       <r>   -5.4910    1.0000 </r>
       <r>    0.2175    1.0000 </r>
       <r>    1.1167    1.0000 </r>
       <r>    1.3852    1.0000 </r>
       <r>    3.7888    0.0000 </r>
       <r>    4.2140    0.0000 </r>
       <r>    6.8563    0.0000 </r>
       <r>    7.0952    0.0000 </r>
      </set>
      <set comment="kpoint 20">
       <r>  -28.9739    1.0000 </r>
       <r>  -22.1721    1.0000 </r>
       <r>  -22.1698    1.0000 </r>
       <r>  -22.1695    1.0000 </r>
       <r>  -22.1602    1.0000 </r>
       <r>  -22.1600    1.0000 </r>
       <r>  -22.1576    1.0000 </r>
       <r>  -12.5063    1.0000 </r>
       <r>  -12.5026    1.0000 </r>
       <r>  -12.4960    1.0000 </r>
       <r>   -5.4731    1.0000 </r>
       <r>    0.3821    1.0000 </r>
       <r>    0.6112    1.0000 </r>
       <r>    1.4096    1.0000 </r>
       <r>    4.0570    0.0000 </r>
       <r>    5.1064    0.0000 </r>
       <r>    6.6231    0.0000 </r>
       <r>    6.7907    0.0000 </r>
      </set>
      <set comment="kpoint 21">
       <r>  -28.9739    1.0000 </r>
       <r>  -22.1723    1.0000 </r>
       <r>  -22.1715    1.0000 </r>
       <r>  -22.1715    1.0000 </r>
       <r>  -22.1583    1.0000 </r>
       <r>  -22.1583    1.0000 </r>
       <r>  -22.1573    1.0000 </r>
       <r>  -12.5098    1.0000 </r>
       <r>  -12.4975    1.0000 </r>
       <r>  -12.4975    1.0000 </r>
       <r>   -5.4861    1.0000 </r>
       <r>    0.1629    1.0000 </r>
       <r>    1.3551    1.0000 </r>
       <r>    1.3551    1.0000 </r>
       <r>    3.5626    0.0000 </r>
       <r>    3.7921    0.0000 </r>
       <r>    7.2971    0.0000 </r>
       <r>    7.5516    0.0000 </r>
      </set>
      <set comment="kpoint 22">
       <r>  -28.9741    1.0000 </r>
       <r>  -22.1707    1.0000 </r>
       <r>  -22.1687    1.0000 </r>
       <r>  -22.1658    1.0000 </r>
       <r>  -22.1636    1.0000 </r>
       <r>  -22.1609    1.0000 </r>
       <r>  -22.1588    1.0000 </r>
       <r>  -12.5043    1.0000 </r>
       <r>  -12.4961    1.0000 </r>
       <r>  -12.4936    1.0000 </r>
       <r>   -5.6167    1.0000 </r>
       <r>    0.4142    1.0000 </r>
       <r>    1.3934    1.0000 </r>
       <r>    1.6462    1.0000 </r>
       <r>    4.5070    0.0000 </r>
       <r>    4.5648    0.0000 </r>
       <r>    5.6936    0.0000 </r>
       <r>    6.0756    0.0000 </r>
      </set>
      <set comment="kpoint 23">
       <r>  -28.9740    1.0000 </r>
       <r>  -22.1708    1.0000 </r>
       <r>  -22.1680    1.0000 </r>
       <r>  -22.1670    1.0000 </r>
       <r>  -22.1627    1.0000 </r>
       <r>  -22.1615    1.0000 </r>
       <r>  -22.1589    1.0000 </r>
       <r>  -12.5079    1.0000 </r>
       <r>  -12.4979    1.0000 </r>
       <r>  -12.4944    1.0000 </r>
       <r>   -5.5283    1.0000 </r>
       <r>    0.1646    1.0000 </r>
       <r>    1.0998    1.0000 </r>
       <r>    1.4975    1.0000 </r>
       <r>    4.6067    0.0000 </r>
       <r>    5.2508    0.0000 </r>
       <r>    5.4504    0.0000 </r>
       <r>    6.4253    0.0000 </r>
      </set>
      <set comment="kpoint 24">
       <r>  -28.9740    1.0000 </r>
       <r>  -22.1703    1.0000 </r>
       <r>  -22.1693    1.0000 </r>
       <r>  -22.1650    1.0000 </r>
       <r>  -22.1648    1.0000 </r>
       <r>  -22.1598    1.0000 </r>
       <r>  -22.1598    1.0000 </r>
       <r>  -12.5094    1.0000 </r>
       <r>  -12.4985    1.0000 </r>
       <r>  -12.4948    1.0000 </r>
       <r>   -5.4905    1.0000 </r>
       <r>    0.0666    1.0000 </r>
       <r>    0.9949    1.0000 </r>
       <r>    1.4350    1.0000 </r>
       <r>    4.7248    0.0000 </r>
       <r>    5.0375    0.0000 </r>
       <r>    6.3300    0.0000 </r>
       <r>    6.3557    0.0000 </r>
      </set>
      <set comment="kpoint 25">
       <r>  -28.9740    1.0000 </r>
       <r>  -22.1715    1.0000 </r>
       <r>  -22.1702    1.0000 </r>
       <r>  -22.1693    1.0000 </r>
       <r>  -22.1605    1.0000 </r>
       <r>  -22.1592    1.0000 </r>
       <r>  -22.1584    1.0000 </r>
       <r>  -12.5073    1.0000 </r>
       <r>  -12.4983    1.0000 </r>
       <r>  -12.4963    1.0000 </r>
       <r>   -5.5131    1.0000 </r>
       <r>    0.2482    1.0000 </r>
       <r>    1.1461    1.0000 </r>
       <r>    1.3281    1.0000 </r>
       <r>    4.2381    0.0000 </r>
       <r>    4.5068    0.0000 </r>
       <r>    5.9982    0.0000 </r>
       <r>    7.0317    0.0000 </r>
      </set>
      <set comment="kpoint 26">
       <r>  -28.9739    1.0000 </r>
       <r>  -22.1719    1.0000 </r>
       <r>  -22.1708    1.0000 </r>
       <r>  -22.1674    1.0000 </r>
       <r>  -22.1624    1.0000 </r>
       <r>  -22.1585    1.0000 </r>
       <r>  -22.1581    1.0000 </r>
       <r>  -12.5065    1.0000 </r>
       <r>  -12.5013    1.0000 </r>
       <r>  -12.4967    1.0000 </r>
       <r>   -5.4758    1.0000 </r>
       <r>    0.3311    1.0000 </r>
       <r>    0.7610    1.0000 </r>
       <r>    1.2455    1.0000 </r>
       <r>    4.4788    0.0000 </r>
       <r>    5.1582    0.0000 </r>
       <r>    5.8055    0.0000 </r>
       <r>    6.5879    0.0000 </r>
      </set>
      <set comment="kpoint 27">
       <r>  -28.9739    1.0000 </r>
       <r>  -22.1719    1.0000 </r>
       <r>  -22.1698    1.0000 </r>
       <r>  -22.1651    1.0000 </r>
       <r>  -22.1647    1.0000 </r>
       <r>  -22.1597    1.0000 </r>
       <r>  -22.1580    1.0000 </r>
       <r>  -12.5058    1.0000 </r>
       <r>  -12.5023    1.0000 </r>
       <r>  -12.4957    1.0000 </r>
       <r>   -5.4823    1.0000 </r>
       <r>    0.3219    1.0000 </r>
       <r>    0.6959    1.0000 </r>
       <r>    1.3324    1.0000 </r>
       <r>    4.8156    0.0000 </r>
       <r>    5.4426    0.0000 </r>
       <r>    5.4979    0.0000 </r>
       <r>    6.4231    0.0000 </r>
      </set>
      <set comment="kpoint 28">
       <r>  -28.9739    1.0000 </r>
       <r>  -22.1724    1.0000 </r>
       <r>  -22.1713    1.0000 </r>
       <r>  -22.1696    1.0000 </r>
       <r>  -22.1603    1.0000 </r>
       <r>  -22.1582    1.0000 </r>
       <r>  -22.1574    1.0000 </r>
       <r>  -12.5080    1.0000 </r>
       <r>  -12.4992    1.0000 </r>
       <r>  -12.4978    1.0000 </r>
       <r>   -5.4757    1.0000 </r>
       <r>    0.2736    1.0000 </r>
       <r>    1.0594    1.0000 </r>
       <r>    1.1534    1.0000 </r>
       <r>    4.1213    0.0000 </r>
       <r>    4.2955    0.0000 </r>
       <r>    6.7759    0.0000 </r>
       <r>    6.8364    0.0000 </r>
      </set>
      <set comment="kpoint 29">
       <r>  -28.9739    1.0000 </r>
       <r>  -22.1725    1.0000 </r>
       <r>  -22.1712    1.0000 </r>
       <r>  -22.1649    1.0000 </r>
       <r>  -22.1649    1.0000 </r>
       <r>  -22.1578    1.0000 </r>
       <r>  -22.1578    1.0000 </r>
       <r>  -12.5036    1.0000 </r>
       <r>  -12.5036    1.0000 </r>
       <r>  -12.4982    1.0000 </r>
       <r>   -5.4652    1.0000 </r>
       <r>    0.5948    1.0000 </r>
       <r>    0.5948    1.0000 </r>
       <r>    0.9877    1.0000 </r>
       <r>    5.0060    0.0000 </r>
       <r>    5.3530    0.0000 </r>
       <r>    5.3530    0.0000 </r>
       <r>    6.0228    0.0000 </r>
      </set>
     </set>
    </set>
   </array>
  </eigenvalues>
  <separator name="orbital magnetization" >
   <v name="MAGDIPOLOUT">      0.00000000      0.00000000      0.00000000</v>
  </separator>
  <dos>
   <i name="efermi">      2.29640766 </i>
   <total>
    <array>
     <dimension dim="1">gridpoints</dimension>
     <dimension dim="2">spin</dimension>
     <field>energy</field>
     <field>total</field>
     <field>integrated</field>
     <set>
      <set comment="spin 1">
       <r>   -30.8006     0.0000     0.0000 </r>
       <r>   -30.6666     0.0000     0.0000 </r>
       <r>   -30.5327     0.0000     0.0000 </r>
       <r>   -30.3988     0.0000     0.0000 </r>
       <r>   -30.2648     0.0000     0.0000 </r>
       <r>   -30.1309     0.0000     0.0000 </r>
       <r>   -29.9970     0.0000     0.0000 </r>
       <r>   -29.8631     0.0000     0.0000 </r>
       <r>   -29.7291     0.0000     0.0000 </r>
       <r>   -29.5952     0.0000     0.0000 </r>
       <r>   -29.4613     0.0000     0.0000 </r>
       <r>   -29.3274     0.0000     0.0000 </r>
       <r>   -29.1934     0.0000     0.0000 </r>
       <r>   -29.0595     0.1165     0.0156 </r>
       <r>   -28.9256    13.5424     1.8293 </r>
       <r>   -28.7916     1.2745     2.0000 </r>
       <r>   -28.6577     0.0000     2.0000 </r>
       <r>   -28.5238     0.0000     2.0000 </r>
       <r>   -28.3899     0.0000     2.0000 </r>
       <r>   -28.2559     0.0000     2.0000 </r>
       <r>   -28.1220     0.0000     2.0000 </r>
       <r>   -27.9881     0.0000     2.0000 </r>
       <r>   -27.8541     0.0000     2.0000 </r>
       <r>   -27.7202     0.0000     2.0000 </r>
       <r>   -27.5863     0.0000     2.0000 </r>
       <r>   -27.4524     0.0000     2.0000 </r>
       <r>   -27.3184     0.0000     2.0000 </r>
       <r>   -27.1845     0.0000     2.0000 </r>
       <r>   -27.0506     0.0000     2.0000 </r>
       <r>   -26.9166     0.0000     2.0000 </r>
       <r>   -26.7827     0.0000     2.0000 </r>
       <r>   -26.6488     0.0000     2.0000 </r>
       <r>   -26.5149     0.0000     2.0000 </r>
       <r>   -26.3809     0.0000     2.0000 </r>
       <r>   -26.2470     0.0000     2.0000 </r>
       <r>   -26.1131     0.0000     2.0000 </r>
       <r>   -25.9792     0.0000     2.0000 </r>
       <r>   -25.8452     0.0000     2.0000 </r>
       <r>   -25.7113     0.0000     2.0000 </r>
       <r>   -25.5774     0.0000     2.0000 </r>
       <r>   -25.4434     0.0000     2.0000 </r>
       <r>   -25.3095     0.0000     2.0000 </r>
       <r>   -25.1756     0.0000     2.0000 </r>
       <r>   -25.0417     0.0000     2.0000 </r>
       <r>   -24.9077     0.0000     2.0000 </r>
       <r>   -24.7738     0.0000     2.0000 </r>
       <r>   -24.6399     0.0000     2.0000 </r>
       <r>   -24.5059     0.0000     2.0000 </r>
       <r>   -24.3720     0.0000     2.0000 </r>
       <r>   -24.2381     0.0000     2.0000 </r>
       <r>   -24.1042     0.0000     2.0000 </r>
       <r>   -23.9702     0.0000     2.0000 </r>
       <r>   -23.8363     0.0000     2.0000 </r>
       <r>   -23.7024     0.0000     2.0000 </r>
       <r>   -23.5684     0.0000     2.0000 </r>
       <r>   -23.4345     0.0000     2.0000 </r>
       <r>   -23.3006     0.0000     2.0000 </r>
       <r>   -23.1667     0.0000     2.0000 </r>
       <r>   -23.0327     0.0000     2.0000 </r>
       <r>   -22.8988     0.0000     2.0000 </r>
       <r>   -22.7649     0.0000     2.0000 </r>
       <r>   -22.6310     0.0000     2.0000 </r>
       <r>   -22.4970     0.0000     2.0000 </r>
       <r>   -22.3631     0.0000     2.0000 </r>
       <r>   -22.2292     3.1822     2.4262 </r>
       <r>   -22.0952    84.1333    13.6940 </r>
       <r>   -21.9613     2.2849    14.0000 </r>
       <r>   -21.8274     0.0000    14.0000 </r>
       <r>   -21.6935     0.0000    14.0000 </r>
       <r>   -21.5595     0.0000    14.0000 </r>
       <r>   -21.4256     0.0000    14.0000 </r>
       <r>   -21.2917     0.0000    14.0000 </r>
       <r>   -21.1577     0.0000    14.0000 </r>
       <r>   -21.0238     0.0000    14.0000 </r>
       <r>   -20.8899     0.0000    14.0000 </r>
       <r>   -20.7560     0.0000    14.0000 </r>
       <r>   -20.6220     0.0000    14.0000 </r>
       <r>   -20.4881     0.0000    14.0000 </r>
       <r>   -20.3542     0.0000    14.0000 </r>
       <r>   -20.2202     0.0000    14.0000 </r>
       <r>   -20.0863     0.0000    14.0000 </r>
       <r>   -19.9524     0.0000    14.0000 </r>
       <r>   -19.8185     0.0000    14.0000 </r>
       <r>   -19.6845     0.0000    14.0000 </r>
       <r>   -19.5506     0.0000    14.0000 </r>
       <r>   -19.4167     0.0000    14.0000 </r>
       <r>   -19.2827     0.0000    14.0000 </r>
       <r>   -19.1488     0.0000    14.0000 </r>
       <r>   -19.0149     0.0000    14.0000 </r>
       <r>   -18.8810     0.0000    14.0000 </r>
       <r>   -18.7470     0.0000    14.0000 </r>
       <r>   -18.6131     0.0000    14.0000 </r>
       <r>   -18.4792     0.0000    14.0000 </r>
       <r>   -18.3453     0.0000    14.0000 </r>
       <r>   -18.2113     0.0000    14.0000 </r>
       <r>   -18.0774     0.0000    14.0000 </r>
       <r>   -17.9435     0.0000    14.0000 </r>
       <r>   -17.8095     0.0000    14.0000 </r>
       <r>   -17.6756     0.0000    14.0000 </r>
       <r>   -17.5417     0.0000    14.0000 </r>
       <r>   -17.4078     0.0000    14.0000 </r>
       <r>   -17.2738     0.0000    14.0000 </r>
       <r>   -17.1399     0.0000    14.0000 </r>
       <r>   -17.0060     0.0000    14.0000 </r>
       <r>   -16.8720     0.0000    14.0000 </r>
       <r>   -16.7381     0.0000    14.0000 </r>
       <r>   -16.6042     0.0000    14.0000 </r>
       <r>   -16.4703     0.0000    14.0000 </r>
       <r>   -16.3363     0.0000    14.0000 </r>
       <r>   -16.2024     0.0000    14.0000 </r>
       <r>   -16.0685     0.0000    14.0000 </r>
       <r>   -15.9345     0.0000    14.0000 </r>
       <r>   -15.8006     0.0000    14.0000 </r>
       <r>   -15.6667     0.0000    14.0000 </r>
       <r>   -15.5328     0.0000    14.0000 </r>
       <r>   -15.3988     0.0000    14.0000 </r>
       <r>   -15.2649     0.0000    14.0000 </r>
       <r>   -15.1310     0.0000    14.0000 </r>
       <r>   -14.9971     0.0000    14.0000 </r>
       <r>   -14.8631     0.0000    14.0000 </r>
       <r>   -14.7292     0.0000    14.0000 </r>
       <r>   -14.5953     0.0000    14.0000 </r>
       <r>   -14.4613     0.0000    14.0000 </r>
       <r>   -14.3274     0.0000    14.0000 </r>
       <r>   -14.1935     0.0000    14.0000 </r>
       <r>   -14.0596     0.0000    14.0000 </r>
       <r>   -13.9256     0.0000    14.0000 </r>
       <r>   -13.7917     0.0000    14.0000 </r>
       <r>   -13.6578     0.0000    14.0000 </r>
       <r>   -13.5238     0.0000    14.0000 </r>
       <r>   -13.3899     0.0000    14.0000 </r>
       <r>   -13.2560     0.0000    14.0000 </r>
       <r>   -13.1221     0.0000    14.0000 </r>
       <r>   -12.9881     0.0000    14.0000 </r>
       <r>   -12.8542     0.0000    14.0000 </r>
       <r>   -12.7203     0.0000    14.0000 </r>
       <r>   -12.5863     0.3478    14.0466 </r>
       <r>   -12.4524    40.2545    19.4378 </r>
       <r>   -12.3185     4.1979    20.0000 </r>
       <r>   -12.1846     0.0000    20.0000 </r>
       <r>   -12.0506     0.0000    20.0000 </r>
       <r>   -11.9167     0.0000    20.0000 </r>
       <r>   -11.7828     0.0000    20.0000 </r>
       <r>   -11.6489     0.0000    20.0000 </r>
       <r>   -11.5149     0.0000    20.0000 </r>
       <r>   -11.3810     0.0000    20.0000 </r>
       <r>   -11.2471     0.0000    20.0000 </r>
       <r>   -11.1131     0.0000    20.0000 </r>
       <r>   -10.9792     0.0000    20.0000 </r>
       <r>   -10.8453     0.0000    20.0000 </r>
       <r>   -10.7114     0.0000    20.0000 </r>
       <r>   -10.5774     0.0000    20.0000 </r>
       <r>   -10.4435     0.0000    20.0000 </r>
       <r>   -10.3096     0.0000    20.0000 </r>
       <r>   -10.1756     0.0000    20.0000 </r>
       <r>   -10.0417     0.0000    20.0000 </r>
       <r>    -9.9078     0.0000    20.0000 </r>
       <r>    -9.7739     0.0000    20.0000 </r>
       <r>    -9.6399     0.0000    20.0000 </r>
       <r>    -9.5060     0.0000    20.0000 </r>
       <r>    -9.3721     0.0000    20.0000 </r>
       <r>    -9.2381     0.0000    20.0000 </r>
       <r>    -9.1042     0.0000    20.0000 </r>
       <r>    -8.9703     0.0000    20.0000 </r>
       <r>    -8.8364     0.0000    20.0000 </r>
       <r>    -8.7024     0.0000    20.0000 </r>
       <r>    -8.5685     0.0000    20.0000 </r>
       <r>    -8.4346     0.0000    20.0000 </r>
       <r>    -8.3006     0.0000    20.0000 </r>
       <r>    -8.1667     0.0000    20.0000 </r>
       <r>    -8.0328     0.0000    20.0000 </r>
       <r>    -7.8989     0.0000    20.0000 </r>
       <r>    -7.7649     0.0000    20.0000 </r>
       <r>    -7.6310     0.0000    20.0000 </r>
       <r>    -7.4971     0.0000    20.0000 </r>
       <r>    -7.3632     0.0000    20.0000 </r>
       <r>    -7.2292     0.0000    20.0000 </r>
       <r>    -7.0953     0.0000    20.0000 </r>
       <r>    -6.9614     0.0000    20.0000 </r>
       <r>    -6.8274     0.0000    20.0000 </r>
       <r>    -6.6935     0.0000    20.0000 </r>
       <r>    -6.5596     0.0000    20.0000 </r>
       <r>    -6.4257     0.0000    20.0000 </r>
       <r>    -6.2917     0.0000    20.0000 </r>
       <r>    -6.1578     0.0000    20.0000 </r>
       <r>    -6.0239     0.0000    20.0000 </r>
       <r>    -5.8899     0.0050    20.0007 </r>
       <r>    -5.7560     0.5252    20.0710 </r>
       <r>    -5.6221     2.1723    20.3619 </r>
       <r>    -5.4882     8.3568    21.4812 </r>
       <r>    -5.3542     3.8730    21.9999 </r>
       <r>    -5.2203     0.0011    22.0000 </r>
       <r>    -5.0864     0.0000    22.0000 </r>
       <r>    -4.9524     0.0000    22.0000 </r>
       <r>    -4.8185     0.0000    22.0000 </r>
       <r>    -4.6846     0.0000    22.0000 </r>
       <r>    -4.5507     0.0000    22.0000 </r>
       <r>    -4.4167     0.0000    22.0000 </r>
       <r>    -4.2828     0.0000    22.0000 </r>
       <r>    -4.1489     0.0000    22.0000 </r>
       <r>    -4.0150     0.0000    22.0000 </r>
       <r>    -3.8810     0.0000    22.0000 </r>
       <r>    -3.7471     0.0000    22.0000 </r>
       <r>    -3.6132     0.0000    22.0000 </r>
       <r>    -3.4792     0.0000    22.0000 </r>
       <r>    -3.3453     0.0000    22.0000 </r>
       <r>    -3.2114     0.0000    22.0000 </r>
       <r>    -3.0775     0.0000    22.0000 </r>
       <r>    -2.9435     0.0000    22.0000 </r>
       <r>    -2.8096     0.0000    22.0000 </r>
       <r>    -2.6757     0.0000    22.0000 </r>
       <r>    -2.5417     0.0000    22.0000 </r>
       <r>    -2.4078     0.0000    22.0000 </r>
       <r>    -2.2739     0.0000    22.0000 </r>
       <r>    -2.1400     0.0000    22.0000 </r>
       <r>    -2.0060     0.0000    22.0000 </r>
       <r>    -1.8721     0.0000    22.0000 </r>
       <r>    -1.7382     0.0000    22.0000 </r>
       <r>    -1.6042     0.0000    22.0000 </r>
       <r>    -1.4703     0.0000    22.0000 </r>
       <r>    -1.3364     0.0000    22.0000 </r>
       <r>    -1.2025     0.0000    22.0000 </r>
       <r>    -1.0685     0.0000    22.0000 </r>
       <r>    -0.9346     0.0000    22.0000 </r>
       <r>    -0.8007     0.0000    22.0000 </r>
       <r>    -0.6668     0.0000    22.0000 </r>
       <r>    -0.5328     0.0000    22.0000 </r>
       <r>    -0.3989     0.0000    22.0000 </r>
       <r>    -0.2650     0.0060    22.0008 </r>
       <r>    -0.1310     0.2132    22.0294 </r>
       <r>     0.0029     1.3589    22.2114 </r>
       <r>     0.1368     1.5686    22.4214 </r>
       <r>     0.2707     4.9024    23.0780 </r>
       <r>     0.4047     4.2379    23.6456 </r>
       <r>     0.5386     0.6994    23.7392 </r>
       <r>     0.6725     1.2101    23.9013 </r>
       <r>     0.8065     2.7937    24.2755 </r>
       <r>     0.9404     0.9238    24.3992 </r>
       <r>     1.0743     2.4712    24.7302 </r>
       <r>     1.2082     3.0134    25.1337 </r>
       <r>     1.3422     3.6145    25.6178 </r>
       <r>     1.4761     6.2764    26.4584 </r>
       <r>     1.6100     5.2851    27.1662 </r>
       <r>     1.7440     3.4206    27.6243 </r>
       <r>     1.8779     1.6620    27.8469 </r>
       <r>     2.0118     0.9226    27.9705 </r>
       <r>     2.1457     0.2174    27.9996 </r>
       <r>     2.2797     0.0031    28.0000 </r>
       <r>     2.4136     0.0000    28.0000 </r>
       <r>     2.5475     0.0000    28.0000 </r>
       <r>     2.6815     0.0017    28.0002 </r>
       <r>     2.8154     0.0271    28.0039 </r>
       <r>     2.9493     0.0004    28.0039 </r>
       <r>     3.0832     0.0000    28.0039 </r>
       <r>     3.2172     0.0000    28.0039 </r>
       <r>     3.3511     0.0367    28.0088 </r>
       <r>     3.4850     0.1985    28.0354 </r>
       <r>     3.6189     0.2422    28.0678 </r>
       <r>     3.7529     0.3343    28.1126 </r>
       <r>     3.8868     1.2188    28.2758 </r>
       <r>     4.0207     1.0354    28.4145 </r>
       <r>     4.1547     2.4174    28.7383 </r>
       <r>     4.2886     4.1931    29.2999 </r>
       <r>     4.4225     0.6954    29.3930 </r>
       <r>     4.5564     4.3329    29.9733 </r>
       <r>     4.6904     2.8219    30.3512 </r>
       <r>     4.8243     1.2411    30.5174 </r>
       <r>     4.9582     0.9494    30.6446 </r>
       <r>     5.0922     1.6807    30.8697 </r>
       <r>     5.2261     2.5138    31.2064 </r>
       <r>     5.3600     3.0721    31.6178 </r>
       <r>     5.4939     5.6460    32.3739 </r>
       <r>     5.6279     2.1668    32.6641 </r>
       <r>     5.7618     3.1142    33.0812 </r>
       <r>     5.8957     3.7515    33.5837 </r>
       <r>     6.0297     2.3091    33.8929 </r>
       <r>     6.1636     1.9037    34.1479 </r>
       <r>     6.2975     0.9453    34.2745 </r>
       <r>     6.4314     3.5629    34.7516 </r>
       <r>     6.5654     3.3061    35.1944 </r>
       <r>     6.6993     2.3411    35.5080 </r>
       <r>     6.8332     1.1525    35.6623 </r>
       <r>     6.9671     0.8213    35.7723 </r>
       <r>     7.1011     1.2031    35.9334 </r>
       <r>     7.2350     0.3255    35.9770 </r>
       <r>     7.3689     0.0822    35.9880 </r>
       <r>     7.5029     0.0092    35.9893 </r>
       <r>     7.6368     0.0794    35.9999 </r>
       <r>     7.7707     0.0007    36.0000 </r>
       <r>     7.9046     0.0000    36.0000 </r>
       <r>     8.0386     0.0000    36.0000 </r>
       <r>     8.1725     0.0000    36.0000 </r>
       <r>     8.3064     0.0000    36.0000 </r>
       <r>     8.4404     0.0000    36.0000 </r>
       <r>     8.5743     0.0000    36.0000 </r>
       <r>     8.7082     0.0000    36.0000 </r>
       <r>     8.8421     0.0000    36.0000 </r>
       <r>     8.9761     0.0000    36.0000 </r>
       <r>     9.1100     0.0000    36.0000 </r>
       <r>     9.2439     0.0000    36.0000 </r>
       <r>     9.3779     0.0000    36.0000 </r>
      </set>
     </set>
    </array>
   </total>
  </dos>
 </calculation>
 <structure name="finalpos" >
  <crystal>
   <varray name="basis" >
    <v>       3.90172619      -3.90172619       0.00000000 </v>
    <v>      -3.90172619       0.00000000      -3.90172619 </v>
    <v>       3.90172619       3.90172619       0.00000000 </v>
   </varray>
   <i name="volume">    118.79560202 </i>
   <varray name="rec_basis" >
    <v>       0.12814841      -0.12814841      -0.12814841 </v>
    <v>       0.00000000       0.00000000      -0.25629682 </v>
    <v>       0.12814841       0.12814841      -0.12814841 </v>
   </varray>
  </crystal>
  <varray name="positions" >
   <v>       0.49999987       0.00000000       0.49999987 </v>
   <v>       0.75000175       0.50000117       0.25000058 </v>
   <v>       0.25000058       0.50000117       0.75000175 </v>
   <v>       0.00000000       0.00000000       0.00000000 </v>
  </varray>
 </structure>
</modeling>
