unknown system                          
           1
     3.901726   -3.901726    0.000000
    -3.901726    0.000000   -3.901726
     3.901726    3.901726    0.000000
   K    Na   Sb
   1   2   1
Direct configuration=     1
   0.49999987  0.00000000  0.49999987
   0.75000175  0.50000117  0.25000058
   0.25000058  0.50000117  0.75000175
   0.00000000  0.00000000  0.00000000
