   4   4   0   0
  0.4202142E+02  0.6194628E-09  0.6194628E-09  0.6194628E-09  0.5000000E-15
  1.000000000000000E-004
  CAR 
 unknown system                          
      7.25089086    -30.88139107  301      2.05536745      1.00000000
    -30.881  0.0000E+00  0.0000E+00
    -30.754  0.0000E+00  0.0000E+00
    -30.627  0.0000E+00  0.0000E+00
    -30.500  0.0000E+00  0.0000E+00
    -30.373  0.0000E+00  0.0000E+00
    -30.246  0.0000E+00  0.0000E+00
    -30.119  0.0000E+00  0.0000E+00
    -29.992  0.0000E+00  0.0000E+00
    -29.865  0.0000E+00  0.0000E+00
    -29.737  0.0000E+00  0.0000E+00
    -29.610  0.0000E+00  0.0000E+00
    -29.483  0.0000E+00  0.0000E+00
    -29.356  0.2538E-07  0.3226E-08
    -29.229  0.2280E+00  0.2898E-01
    -29.102  0.2726E+02  0.3494E+01
    -28.975  0.3982E+01  0.4000E+01
    -28.848  0.3519E-04  0.4000E+01
    -28.721  0.0000E+00  0.4000E+01
    -28.593  0.0000E+00  0.4000E+01
    -28.466  0.0000E+00  0.4000E+01
    -28.339  0.0000E+00  0.4000E+01
    -28.212  0.0000E+00  0.4000E+01
    -28.085  0.0000E+00  0.4000E+01
    -27.958  0.0000E+00  0.4000E+01
    -27.831  0.0000E+00  0.4000E+01
    -27.704  0.0000E+00  0.4000E+01
    -27.577  0.0000E+00  0.4000E+01
    -27.449  0.0000E+00  0.4000E+01
    -27.322  0.0000E+00  0.4000E+01
    -27.195  0.0000E+00  0.4000E+01
    -27.068  0.0000E+00  0.4000E+01
    -26.941  0.0000E+00  0.4000E+01
    -26.814  0.0000E+00  0.4000E+01
    -26.687  0.0000E+00  0.4000E+01
    -26.560  0.0000E+00  0.4000E+01
    -26.433  0.0000E+00  0.4000E+01
    -26.306  0.0000E+00  0.4000E+01
    -26.178  0.0000E+00  0.4000E+01
    -26.051  0.0000E+00  0.4000E+01
    -25.924  0.0000E+00  0.4000E+01
    -25.797  0.0000E+00  0.4000E+01
    -25.670  0.0000E+00  0.4000E+01
    -25.543  0.0000E+00  0.4000E+01
    -25.416  0.0000E+00  0.4000E+01
    -25.289  0.0000E+00  0.4000E+01
    -25.162  0.0000E+00  0.4000E+01
    -25.034  0.0000E+00  0.4000E+01
    -24.907  0.0000E+00  0.4000E+01
    -24.780  0.0000E+00  0.4000E+01
    -24.653  0.0000E+00  0.4000E+01
    -24.526  0.0000E+00  0.4000E+01
    -24.399  0.0000E+00  0.4000E+01
    -24.272  0.0000E+00  0.4000E+01
    -24.145  0.0000E+00  0.4000E+01
    -24.018  0.0000E+00  0.4000E+01
    -23.890  0.0000E+00  0.4000E+01
    -23.763  0.0000E+00  0.4000E+01
    -23.636  0.0000E+00  0.4000E+01
    -23.509  0.0000E+00  0.4000E+01
    -23.382  0.0000E+00  0.4000E+01
    -23.255  0.0000E+00  0.4000E+01
    -23.128  0.0000E+00  0.4000E+01
    -23.001  0.0000E+00  0.4000E+01
    -22.874  0.0000E+00  0.4000E+01
    -22.747  0.0000E+00  0.4000E+01
    -22.619  0.0000E+00  0.4000E+01
    -22.492  0.0000E+00  0.4000E+01
    -22.365  0.0000E+00  0.4000E+01
    -22.238  0.0000E+00  0.4000E+01
    -22.111  0.0000E+00  0.4000E+01
    -21.984  0.0000E+00  0.4000E+01
    -21.857  0.0000E+00  0.4000E+01
    -21.730  0.0000E+00  0.4000E+01
    -21.603  0.0000E+00  0.4000E+01
    -21.475  0.0000E+00  0.4000E+01
    -21.348  0.1400E-11  0.4000E+01
    -21.221  0.1287E-02  0.4000E+01
    -21.094  0.6777E+01  0.4862E+01
    -20.967  0.8952E+01  0.5999E+01
    -20.840  0.4917E-02  0.6000E+01
    -20.713  0.1802E-10  0.6000E+01
    -20.586  0.0000E+00  0.6000E+01
    -20.459  0.0000E+00  0.6000E+01
    -20.331  0.0000E+00  0.6000E+01
    -20.204  0.0000E+00  0.6000E+01
    -20.077  0.0000E+00  0.6000E+01
    -19.950  0.0000E+00  0.6000E+01
    -19.823  0.0000E+00  0.6000E+01
    -19.696  0.0000E+00  0.6000E+01
    -19.569  0.0000E+00  0.6000E+01
    -19.442  0.0000E+00  0.6000E+01
    -19.315  0.0000E+00  0.6000E+01
    -19.187  0.0000E+00  0.6000E+01
    -19.060  0.0000E+00  0.6000E+01
    -18.933  0.0000E+00  0.6000E+01
    -18.806  0.0000E+00  0.6000E+01
    -18.679  0.0000E+00  0.6000E+01
    -18.552  0.0000E+00  0.6000E+01
    -18.425  0.0000E+00  0.6000E+01
    -18.298  0.0000E+00  0.6000E+01
    -18.171  0.0000E+00  0.6000E+01
    -18.044  0.0000E+00  0.6000E+01
    -17.916  0.0000E+00  0.6000E+01
    -17.789  0.0000E+00  0.6000E+01
    -17.662  0.0000E+00  0.6000E+01
    -17.535  0.0000E+00  0.6000E+01
    -17.408  0.0000E+00  0.6000E+01
    -17.281  0.0000E+00  0.6000E+01
    -17.154  0.0000E+00  0.6000E+01
    -17.027  0.0000E+00  0.6000E+01
    -16.900  0.0000E+00  0.6000E+01
    -16.772  0.0000E+00  0.6000E+01
    -16.645  0.0000E+00  0.6000E+01
    -16.518  0.0000E+00  0.6000E+01
    -16.391  0.0000E+00  0.6000E+01
    -16.264  0.0000E+00  0.6000E+01
    -16.137  0.0000E+00  0.6000E+01
    -16.010  0.0000E+00  0.6000E+01
    -15.883  0.0000E+00  0.6000E+01
    -15.756  0.0000E+00  0.6000E+01
    -15.628  0.0000E+00  0.6000E+01
    -15.501  0.0000E+00  0.6000E+01
    -15.374  0.0000E+00  0.6000E+01
    -15.247  0.0000E+00  0.6000E+01
    -15.120  0.0000E+00  0.6000E+01
    -14.993  0.0000E+00  0.6000E+01
    -14.866  0.0000E+00  0.6000E+01
    -14.739  0.0000E+00  0.6000E+01
    -14.612  0.0000E+00  0.6000E+01
    -14.485  0.0000E+00  0.6000E+01
    -14.357  0.0000E+00  0.6000E+01
    -14.230  0.0000E+00  0.6000E+01
    -14.103  0.0000E+00  0.6000E+01
    -13.976  0.0000E+00  0.6000E+01
    -13.849  0.0000E+00  0.6000E+01
    -13.722  0.0000E+00  0.6000E+01
    -13.595  0.0000E+00  0.6000E+01
    -13.468  0.0000E+00  0.6000E+01
    -13.341  0.0000E+00  0.6000E+01
    -13.213  0.0000E+00  0.6000E+01
    -13.086  0.0000E+00  0.6000E+01
    -12.959  0.1256E-10  0.6000E+01
    -12.832  0.3787E-02  0.6000E+01
    -12.705  0.1739E+02  0.8211E+01
    -12.578  0.7379E+02  0.1759E+02
    -12.451  0.3226E+01  0.1800E+02
    -12.324  0.1792E-04  0.1800E+02
    -12.197  0.0000E+00  0.1800E+02
    -12.069  0.0000E+00  0.1800E+02
    -11.942  0.0000E+00  0.1800E+02
    -11.815  0.0000E+00  0.1800E+02
    -11.688  0.0000E+00  0.1800E+02
    -11.561  0.0000E+00  0.1800E+02
    -11.434  0.0000E+00  0.1800E+02
    -11.307  0.0000E+00  0.1800E+02
    -11.180  0.0000E+00  0.1800E+02
    -11.053  0.0000E+00  0.1800E+02
    -10.925  0.0000E+00  0.1800E+02
    -10.798  0.0000E+00  0.1800E+02
    -10.671  0.0000E+00  0.1800E+02
    -10.544  0.0000E+00  0.1800E+02
    -10.417  0.0000E+00  0.1800E+02
    -10.290  0.0000E+00  0.1800E+02
    -10.163  0.0000E+00  0.1800E+02
    -10.036  0.0000E+00  0.1800E+02
     -9.909  0.0000E+00  0.1800E+02
     -9.782  0.0000E+00  0.1800E+02
     -9.654  0.0000E+00  0.1800E+02
     -9.527  0.0000E+00  0.1800E+02
     -9.400  0.0000E+00  0.1800E+02
     -9.273  0.0000E+00  0.1800E+02
     -9.146  0.0000E+00  0.1800E+02
     -9.019  0.0000E+00  0.1800E+02
     -8.892  0.0000E+00  0.1800E+02
     -8.765  0.0000E+00  0.1800E+02
     -8.638  0.0000E+00  0.1800E+02
     -8.510  0.0000E+00  0.1800E+02
     -8.383  0.0000E+00  0.1800E+02
     -8.256  0.3742E-13  0.1800E+02
     -8.129  0.1389E-03  0.1800E+02
     -8.002  0.4374E+01  0.1856E+02
     -7.875  0.4117E+02  0.2379E+02
     -7.748  0.1656E+01  0.2400E+02
     -7.621  0.3243E-05  0.2400E+02
     -7.494  0.0000E+00  0.2400E+02
     -7.366  0.0000E+00  0.2400E+02
     -7.239  0.0000E+00  0.2400E+02
     -7.112  0.0000E+00  0.2400E+02
     -6.985  0.0000E+00  0.2400E+02
     -6.858  0.0000E+00  0.2400E+02
     -6.731  0.0000E+00  0.2400E+02
     -6.604  0.0000E+00  0.2400E+02
     -6.477  0.0000E+00  0.2400E+02
     -6.350  0.0000E+00  0.2400E+02
     -6.223  0.0000E+00  0.2400E+02
     -6.095  0.0000E+00  0.2400E+02
     -5.968  0.0000E+00  0.2400E+02
     -5.841  0.0000E+00  0.2400E+02
     -5.714  0.1706E-17  0.2400E+02
     -5.587  0.4889E-07  0.2400E+02
     -5.460  0.1329E-01  0.2400E+02
     -5.333  0.1624E+01  0.2421E+02
     -5.206  0.1313E+02  0.2588E+02
     -5.079  0.9625E+00  0.2600E+02
     -4.951  0.8048E-05  0.2600E+02
     -4.824  0.0000E+00  0.2600E+02
     -4.697  0.0000E+00  0.2600E+02
     -4.570  0.0000E+00  0.2600E+02
     -4.443  0.0000E+00  0.2600E+02
     -4.316  0.0000E+00  0.2600E+02
     -4.189  0.0000E+00  0.2600E+02
     -4.062  0.0000E+00  0.2600E+02
     -3.935  0.0000E+00  0.2600E+02
     -3.807  0.0000E+00  0.2600E+02
     -3.680  0.0000E+00  0.2600E+02
     -3.553  0.0000E+00  0.2600E+02
     -3.426  0.0000E+00  0.2600E+02
     -3.299  0.0000E+00  0.2600E+02
     -3.172  0.0000E+00  0.2600E+02
     -3.045  0.0000E+00  0.2600E+02
     -2.918  0.0000E+00  0.2600E+02
     -2.791  0.0000E+00  0.2600E+02
     -2.664  0.0000E+00  0.2600E+02
     -2.536  0.0000E+00  0.2600E+02
     -2.409  0.0000E+00  0.2600E+02
     -2.282  0.0000E+00  0.2600E+02
     -2.155  0.0000E+00  0.2600E+02
     -2.028  0.0000E+00  0.2600E+02
     -1.901  0.0000E+00  0.2600E+02
     -1.774  0.0000E+00  0.2600E+02
     -1.647  0.0000E+00  0.2600E+02
     -1.520  0.0000E+00  0.2600E+02
     -1.392  0.0000E+00  0.2600E+02
     -1.265  0.0000E+00  0.2600E+02
     -1.138  0.0000E+00  0.2600E+02
     -1.011  0.0000E+00  0.2600E+02
     -0.884  0.0000E+00  0.2600E+02
     -0.757  0.0000E+00  0.2600E+02
     -0.630  0.0000E+00  0.2600E+02
     -0.503  0.0000E+00  0.2600E+02
     -0.376  0.0000E+00  0.2600E+02
     -0.248  0.0000E+00  0.2600E+02
     -0.121  0.0000E+00  0.2600E+02
      0.006  0.0000E+00  0.2600E+02
      0.133  0.0000E+00  0.2600E+02
      0.260  0.0000E+00  0.2600E+02
      0.387  0.6709E-10  0.2600E+02
      0.514  0.7629E-03  0.2600E+02
      0.641  0.1782E+00  0.2602E+02
      0.768  0.1867E+01  0.2626E+02
      0.896  0.6143E+01  0.2704E+02
      1.023  0.4194E+01  0.2757E+02
      1.150  0.2571E+01  0.2790E+02
      1.277  0.1781E+01  0.2813E+02
      1.404  0.5315E+01  0.2880E+02
      1.531  0.1196E+02  0.3032E+02
      1.658  0.8768E+01  0.3144E+02
      1.785  0.4119E+01  0.3196E+02
      1.912  0.3064E+00  0.3200E+02
      2.039  0.4751E-04  0.3200E+02
      2.167  0.1115E-12  0.3200E+02
      2.294  0.0000E+00  0.3200E+02
      2.421  0.1076E-10  0.3200E+02
      2.548  0.1558E-03  0.3200E+02
      2.675  0.2588E-01  0.3200E+02
      2.802  0.4698E-02  0.3200E+02
      2.929  0.5926E-07  0.3200E+02
      3.056  0.1855E-02  0.3200E+02
      3.183  0.4181E+00  0.3206E+02
      3.311  0.2048E+00  0.3208E+02
      3.438  0.7585E+00  0.3218E+02
      3.565  0.5860E+00  0.3225E+02
      3.692  0.2208E+01  0.3253E+02
      3.819  0.1183E+01  0.3269E+02
      3.946  0.1713E+01  0.3290E+02
      4.073  0.5167E+01  0.3356E+02
      4.200  0.3771E+01  0.3404E+02
      4.327  0.4748E+01  0.3464E+02
      4.455  0.5768E+01  0.3538E+02
      4.582  0.5520E+01  0.3608E+02
      4.709  0.2646E+01  0.3641E+02
      4.836  0.4560E+01  0.3699E+02
      4.963  0.6846E+01  0.3786E+02
      5.090  0.5892E+01  0.3861E+02
      5.217  0.6755E+01  0.3947E+02
      5.344  0.3582E+01  0.3993E+02
      5.471  0.4972E+00  0.3999E+02
      5.598  0.8254E-01  0.4000E+02
      5.726  0.1021E-02  0.4000E+02
      5.853  0.1858E-09  0.4000E+02
      5.980  0.0000E+00  0.4000E+02
      6.107  0.0000E+00  0.4000E+02
      6.234  0.0000E+00  0.4000E+02
      6.361  0.0000E+00  0.4000E+02
      6.488  0.0000E+00  0.4000E+02
      6.615  0.0000E+00  0.4000E+02
      6.742  0.0000E+00  0.4000E+02
      6.870  0.0000E+00  0.4000E+02
      6.997  0.0000E+00  0.4000E+02
      7.124  0.0000E+00  0.4000E+02
      7.251  0.0000E+00  0.4000E+02
