    4    4    1    1
  0.4202142E+02  0.6194628E-09  0.6194628E-09  0.6194628E-09  0.5000000E-15
  1.000000000000000E-004
  CAR 
 unknown system                          
     32     29     20
 
  0.0000000E+00  0.0000000E+00  0.0000000E+00  0.1953125E-02
    1      -29.148106   1.000000
    2      -29.136968   1.000000
    3      -21.086782   1.000000
    4      -12.687426   1.000000
    5      -12.687425   1.000000
    6      -12.687424   1.000000
    7      -12.631458   1.000000
    8      -12.631457   1.000000
    9      -12.631456   1.000000
   10       -7.937134   1.000000
   11       -7.937125   1.000000
   12       -7.937116   1.000000
   13       -5.421666   1.000000
   14        1.791008   1.000000
   15        1.791024   1.000000
   16        1.791039   1.000000
   17        2.638806   0.000000
   18        3.979346   0.000000
   19        3.979346   0.000000
   20        4.481548   0.000000
 
  0.1250000E+00  0.0000000E+00  0.0000000E+00  0.1562500E-01
    1      -29.147652   1.000000
    2      -29.137377   1.000000
    3      -21.086943   1.000000
    4      -12.687335   1.000000
    5      -12.685703   1.000000
    6      -12.685702   1.000000
    7      -12.633878   1.000000
    8      -12.633876   1.000000
    9      -12.632225   1.000000
   10       -7.946982   1.000000
   11       -7.935896   1.000000
   12       -7.935883   1.000000
   13       -5.390252   1.000000
   14        1.423586   1.000000
   15        1.721643   1.000000
   16        1.721664   1.000000
   17        3.146615   0.000000
   18        4.179882   0.000000
   19        4.179883   0.000000
   20        4.411133   0.000000
 
  0.2500000E+00  0.0000000E+00  0.0000000E+00  0.1562500E-01
    1      -29.146389   1.000000
    2      -29.138528   1.000000
    3      -21.087353   1.000000
    4      -12.684772   1.000000
    5      -12.680608   1.000000
    6      -12.680606   1.000000
    7      -12.640652   1.000000
    8      -12.640651   1.000000
    9      -12.636617   1.000000
   10       -7.968058   1.000000
   11       -7.932918   1.000000
   12       -7.932906   1.000000
   13       -5.318998   1.000000
   14        0.983338   1.000000
   15        1.583981   1.000000
   16        1.584001   1.000000
   17        3.817825   0.000000
   18        4.531152   0.000000
   19        4.674623   0.000000
   20        4.678806   0.000000
 
  0.3750000E+00  0.0000000E+00  0.0000000E+00  0.1562500E-01
    1      -29.144522   1.000000
    2      -29.140278   1.000000
    3      -21.087766   1.000000
    4      -12.677314   1.000000
    5      -12.672641   1.000000
    6      -12.672639   1.000000
    7      -12.650309   1.000000
    8      -12.650308   1.000000
    9      -12.646072   1.000000
   10       -7.985676   1.000000
   11       -7.929951   1.000000
   12       -7.929939   1.000000
   13       -5.253732   1.000000
   14        0.700604   1.000000
   15        1.473728   1.000000
   16        1.473747   1.000000
   17        4.164850   0.000000
   18        4.876816   0.000000
   19        4.876817   0.000000
   20        5.155492   0.000000
 
  0.5000000E+00  0.0000000E+00  0.0000000E+00  0.7812500E-02
    1      -29.142397   1.000000
    2      -29.142351   1.000000
    3      -21.087930   1.000000
    4      -12.670073   1.000000
    5      -12.665067   1.000000
    6      -12.665064   1.000000
    7      -12.658586   1.000000
    8      -12.658585   1.000000
    9      -12.654199   1.000000
   10       -7.992065   1.000000
   11       -7.928720   1.000000
   12       -7.928708   1.000000
   13       -5.228314   1.000000
   14        0.602585   1.000000
   15        1.433643   1.000000
   16        1.433663   1.000000
   17        4.455310   0.000000
   18        4.996701   0.000000
   19        4.996703   0.000000
   20        5.112759   0.000000
 
  0.0000000E+00  0.1250000E+00  0.0000000E+00  0.1171875E-01
    1      -29.147525   1.000000
    2      -29.137489   1.000000
    3      -21.087002   1.000000
    4      -12.690882   1.000000
    5      -12.690881   1.000000
    6      -12.676276   1.000000
    7      -12.642401   1.000000
    8      -12.629462   1.000000
    9      -12.629462   1.000000
   10       -7.949865   1.000000
   11       -7.935410   1.000000
   12       -7.935410   1.000000
   13       -5.382139   1.000000
   14        1.284696   1.000000
   15        1.775286   1.000000
   16        1.775286   1.000000
   17        3.158120   0.000000
   18        4.087755   0.000000
   19        4.225782   0.000000
   20        4.435550   0.000000
 
  0.1250000E+00  0.1250000E+00  0.0000000E+00  0.4687500E-01
    1      -29.146589   1.000000
    2      -29.138331   1.000000
    3      -21.087329   1.000000
    4      -12.692423   1.000000
    5      -12.691900   1.000000
    6      -12.665207   1.000000
    7      -12.654037   1.000000
    8      -12.630139   1.000000
    9      -12.629639   1.000000
   10       -7.964825   1.000000
   11       -7.933969   1.000000
   12       -7.932972   1.000000
   13       -5.330476   1.000000
   14        0.996500   1.000000
   15        1.643774   1.000000
   16        1.701700   1.000000
   17        3.655616   0.000000
   18        4.096400   0.000000
   19        4.377306   0.000000
   20        4.771954   0.000000
 
  0.2500000E+00  0.1250000E+00  0.0000000E+00  0.4687500E-01
    1      -29.145019   1.000000
    2      -29.139790   1.000000
    3      -21.087744   1.000000
    4      -12.689175   1.000000
    5      -12.688206   1.000000
    6      -12.667238   1.000000
    7      -12.653000   1.000000
    8      -12.635509   1.000000
    9      -12.635456   1.000000
   10       -7.979092   1.000000
   11       -7.933458   1.000000
   12       -7.930011   1.000000
   13       -5.271252   1.000000
   14        0.793987   1.000000
   15        1.464741   1.000000
   16        1.574370   1.000000
   17        3.975826   0.000000
   18        4.535456   0.000000
   19        4.874836   0.000000
   20        5.029204   0.000000
 
  0.3750000E+00  0.1250000E+00  0.0000000E+00  0.4687500E-01
    1      -29.143074   1.000000
    2      -29.141663   1.000000
    3      -21.087987   1.000000
    4      -12.686099   1.000000
    5      -12.679983   1.000000
    6      -12.673543   1.000000
    7      -12.646534   1.000000
    8      -12.644394   1.000000
    9      -12.641327   1.000000
   10       -7.985609   1.000000
   11       -7.933859   1.000000
   12       -7.928260   1.000000
   13       -5.237304   1.000000
   14        0.695140   1.000000
   15        1.388922   1.000000
   16        1.473616   1.000000
   17        4.297772   0.000000
   18        4.938774   0.000000
   19        5.002802   0.000000
   20        5.060556   0.000000
 
  0.5000000E+00  0.1250000E+00  0.0000000E+00  0.4687500E-01
    1      -29.143683   1.000000
    2      -29.141068   1.000000
    3      -21.087936   1.000000
    4      -12.692676   1.000000
    5      -12.668483   1.000000
    6      -12.665936   1.000000
    7      -12.657079   1.000000
    8      -12.655159   1.000000
    9      -12.631877   1.000000
   10       -7.983623   1.000000
   11       -7.934536   1.000000
   12       -7.928737   1.000000
   13       -5.243221   1.000000
   14        0.714407   1.000000
   15        1.437595   1.000000
   16        1.439922   1.000000
   17        4.305437   0.000000
   18        4.809541   0.000000
   19        4.846562   0.000000
   20        5.121489   0.000000
 
 -0.3750000E+00  0.1250000E+00  0.0000000E+00  0.4687500E-01
    1      -29.145547   1.000000
    2      -29.139296   1.000000
    3      -21.087608   1.000000
    4      -12.696067   1.000000
    5      -12.673479   1.000000
    6      -12.667040   1.000000
    7      -12.654875   1.000000
    8      -12.648633   1.000000
    9      -12.626857   1.000000
   10       -7.973753   1.000000
   11       -7.934953   1.000000
   12       -7.931161   1.000000
   13       -5.286960   1.000000
   14        0.858546   1.000000
   15        1.479232   1.000000
   16        1.588361   1.000000
   17        3.990112   0.000000
   18        4.447283   0.000000
   19        4.651279   0.000000
   20        4.870297   0.000000
 
 -0.2500000E+00  0.1250000E+00  0.0000000E+00  0.2343750E-01
    1      -29.146953   1.000000
    2      -29.138007   1.000000
    3      -21.087196   1.000000
    4      -12.693594   1.000000
    5      -12.681468   1.000000
    6      -12.677356   1.000000
    7      -12.642884   1.000000
    8      -12.638908   1.000000
    9      -12.627592   1.000000
   10       -7.958653   1.000000
   11       -7.935211   1.000000
   12       -7.934127   1.000000
   13       -5.348368   1.000000
   14        1.124296   1.000000
   15        1.590138   1.000000
   16        1.732046   1.000000
   17        3.544708   0.000000
   18        4.285889   0.000000
   19        4.395840   0.000000
   20        4.538553   0.000000
 
  0.0000000E+00  0.2500000E+00  0.0000000E+00  0.1171875E-01
    1      -29.146127   1.000000
    2      -29.138732   1.000000
    3      -21.087555   1.000000
    4      -12.699010   1.000000
    5      -12.699010   1.000000
    6      -12.668801   1.000000
    7      -12.649206   1.000000
    8      -12.624784   1.000000
    9      -12.624784   1.000000
   10       -7.972713   1.000000
   11       -7.931311   1.000000
   12       -7.931311   1.000000
   13       -5.313371   1.000000
   14        0.879628   1.000000
   15        1.743903   1.000000
   16        1.743903   1.000000
   17        3.705293   0.000000
   18        3.720787   0.000000
   19        4.410686   0.000000
   20        4.973419   0.000000
 
  0.1250000E+00  0.2500000E+00  0.0000000E+00  0.4687500E-01
    1      -29.145086   1.000000
    2      -29.139680   1.000000
    3      -21.087881   1.000000
    4      -12.700972   1.000000
    5      -12.700443   1.000000
    6      -12.682061   1.000000
    7      -12.635380   1.000000
    8      -12.625500   1.000000
    9      -12.625036   1.000000
   10       -7.979494   1.000000
   11       -7.932082   1.000000
   12       -7.928905   1.000000
   13       -5.282744   1.000000
   14        0.841053   1.000000
   15        1.600326   1.000000
   16        1.681034   1.000000
   17        3.633096   0.000000
   18        4.109922   0.000000
   19        4.765567   0.000000
   20        5.190726   0.000000
 
  0.2500000E+00  0.2500000E+00  0.0000000E+00  0.4687500E-01
    1      -29.143647   1.000000
    2      -29.141049   1.000000
    3      -21.088129   1.000000
    4      -12.702706   1.000000
    5      -12.695582   1.000000
    6      -12.685559   1.000000
    7      -12.633521   1.000000
    8      -12.630541   1.000000
    9      -12.624693   1.000000
   10       -7.977073   1.000000
   11       -7.939560   1.000000
   12       -7.927168   1.000000
   13       -5.257421   1.000000
   14        0.889619   1.000000
   15        1.365015   1.000000
   16        1.571525   1.000000
   17        3.852486   0.000000
   18        4.597633   0.000000
   19        5.063503   0.000000
   20        5.077245   0.000000
 
  0.3750000E+00  0.2500000E+00  0.0000000E+00  0.4687500E-01
    1      -29.142642   1.000000
    2      -29.142048   1.000000
    3      -21.088155   1.000000
    4      -12.706513   1.000000
    5      -12.685055   1.000000
    6      -12.675729   1.000000
    7      -12.646692   1.000000
    8      -12.640302   1.000000
    9      -12.618946   1.000000
   10       -7.969882   1.000000
   11       -7.948191   1.000000
   12       -7.927109   1.000000
   13       -5.247630   1.000000
   14        0.902030   1.000000
   15        1.291950   1.000000
   16        1.478771   1.000000
   17        4.275501   0.000000
   18        4.538889   0.000000
   19        4.929409   0.000000
   20        5.082903   0.000000
 
  0.5000000E+00  0.2500000E+00  0.0000000E+00  0.2343750E-01
    1      -29.144224   1.000000
    2      -29.140527   1.000000
    3      -21.087932   1.000000
    4      -12.704690   1.000000
    5      -12.670657   1.000000
    6      -12.661836   1.000000
    7      -12.661151   1.000000
    8      -12.652948   1.000000
    9      -12.619526   1.000000
   10       -7.972062   1.000000
   11       -7.943453   1.000000
   12       -7.928758   1.000000
   13       -5.258013   1.000000
   14        0.839054   1.000000
   15        1.441569   1.000000
   16        1.441682   1.000000
   17        4.303997   0.000000
   18        4.531204   0.000000
   19        4.741954   0.000000
   20        4.774544   0.000000
 
  0.0000000E+00  0.3750000E+00  0.0000000E+00  0.1171875E-01
    1      -29.144726   1.000000
    2      -29.139976   1.000000
    3      -21.088104   1.000000
    4      -12.706992   1.000000
    5      -12.706992   1.000000
    6      -12.695026   1.000000
    7      -12.621880   1.000000
    8      -12.620228   1.000000
    9      -12.620228   1.000000
   10       -7.985284   1.000000
   11       -7.927271   1.000000
   12       -7.927271   1.000000
   13       -5.283651   1.000000
   14        0.881544   1.000000
   15        1.720323   1.000000
   16        1.720323   1.000000
   17        3.310451   0.000000
   18        4.000053   0.000000
   19        4.938091   0.000000
   20        5.212518   0.000000
 
  0.1250000E+00  0.3750000E+00  0.0000000E+00  0.4687500E-01
    1      -29.144022   1.000000
    2      -29.140635   1.000000
    3      -21.088273   1.000000
    4      -12.710653   1.000000
    5      -12.706380   1.000000
    6      -12.698042   1.000000
    7      -12.622639   1.000000
    8      -12.621501   1.000000
    9      -12.614077   1.000000
   10       -7.982882   1.000000
   11       -7.931308   1.000000
   12       -7.926071   1.000000
   13       -5.275729   1.000000
   14        0.979320   1.000000
   15        1.552999   1.000000
   16        1.671016   1.000000
   17        3.388900   0.000000
   18        4.074991   0.000000
   19        5.179510   0.000000
   20        5.262432   0.000000
 
  0.2500000E+00  0.3750000E+00  0.0000000E+00  0.2343750E-01
    1      -29.143083   1.000000
    2      -29.141569   1.000000
    3      -21.088296   1.000000
    4      -12.712663   1.000000
    5      -12.698616   1.000000
    6      -12.688828   1.000000
    7      -12.632643   1.000000
    8      -12.628510   1.000000
    9      -12.612881   1.000000
   10       -7.970620   1.000000
   11       -7.945574   1.000000
   12       -7.926007   1.000000
   13       -5.261718   1.000000
   14        1.111486   1.000000
   15        1.225771   1.000000
   16        1.572212   1.000000
   17        3.769184   0.000000
   18        4.328467   0.000000
   19        5.131800   0.000000
   20        5.317903   0.000000
 
  0.0000000E+00  0.5000000E+00  0.0000000E+00  0.5859375E-02
    1      -29.144149   1.000000
    2      -29.140492   1.000000
    3      -21.088320   1.000000
    4      -12.710226   1.000000
    5      -12.710226   1.000000
    6      -12.705858   1.000000
    7      -12.618373   1.000000
    8      -12.618373   1.000000
    9      -12.610456   1.000000
   10       -7.987651   1.000000
   11       -7.925614   1.000000
   12       -7.925614   1.000000
   13       -5.282921   1.000000
   14        0.991259   1.000000
   15        1.712508   1.000000
   16        1.712508   1.000000
   17        3.158668   0.000000
   18        3.875244   0.000000
   19        5.180959   0.000000
   20        5.517605   0.000000
 
  0.1250000E+00  0.1250000E+00  0.1250000E+00  0.4687500E-01
    1      -29.145571   1.000000
    2      -29.139258   1.000000
    3      -21.087666   1.000000
    4      -12.700646   1.000000
    5      -12.687022   1.000000
    6      -12.668094   1.000000
    7      -12.651301   1.000000
    8      -12.637006   1.000000
    9      -12.623216   1.000000
   10       -7.973464   1.000000
   11       -7.934814   1.000000
   12       -7.930871   1.000000
   13       -5.291286   1.000000
   14        0.862271   1.000000
   15        1.552087   1.000000
   16        1.638342   1.000000
   17        3.978375   0.000000
   18        3.991365   0.000000
   19        4.710991   0.000000
   20        4.883817   0.000000
 
  0.2500000E+00  0.1250000E+00  0.1250000E+00  0.9375000E-01
    1      -29.144073   1.000000
    2      -29.140664   1.000000
    3      -21.087995   1.000000
    4      -12.703670   1.000000
    5      -12.681523   1.000000
    6      -12.676483   1.000000
    7      -12.648541   1.000000
    8      -12.638521   1.000000
    9      -12.622602   1.000000
   10       -7.976129   1.000000
   11       -7.939405   1.000000
   12       -7.928761   1.000000
   13       -5.257335   1.000000
   14        0.832329   1.000000
   15        1.419129   1.000000
   16        1.507866   1.000000
   17        4.091292   0.000000
   18        4.500570   0.000000
   19        4.856098   0.000000
   20        5.118380   0.000000
 
  0.3750000E+00  0.1250000E+00  0.1250000E+00  0.4687500E-01
    1      -29.142360   1.000000
    2      -29.142337   1.000000
    3      -21.088126   1.000000
    4      -12.703318   1.000000
    5      -12.687176   1.000000
    6      -12.665765   1.000000
    7      -12.660253   1.000000
    8      -12.629034   1.000000
    9      -12.627486   1.000000
   10       -7.975457   1.000000
   11       -7.942491   1.000000
   12       -7.927883   1.000000
   13       -5.244680   1.000000
   14        0.842274   1.000000
   15        1.332351   1.000000
   16        1.470524   1.000000
   17        4.385675   0.000000
   18        4.459919   0.000000
   19        4.994364   0.000000
   20        5.196487   0.000000
 
  0.1250000E+00  0.2500000E+00  0.1250000E+00  0.4687500E-01
    1      -29.144184   1.000000
    2      -29.140507   1.000000
    3      -21.088128   1.000000
    4      -12.710469   1.000000
    5      -12.694096   1.000000
    6      -12.691814   1.000000
    7      -12.633505   1.000000
    8      -12.623375   1.000000
    9      -12.618901   1.000000
   10       -7.978896   1.000000
   11       -7.934532   1.000000
   12       -7.928329   1.000000
   13       -5.270075   1.000000
   14        0.912471   1.000000
   15        1.553570   1.000000
   16        1.555792   1.000000
   17        3.666991   0.000000
   18        4.225875   0.000000
   19        5.021545   0.000000
   20        5.201111   0.000000
 
  0.2500000E+00  0.2500000E+00  0.1250000E+00  0.9375000E-01
    1      -29.143030   1.000000
    2      -29.141627   1.000000
    3      -21.088270   1.000000
    4      -12.715291   1.000000
    5      -12.694703   1.000000
    6      -12.680996   1.000000
    7      -12.646929   1.000000
    8      -12.619752   1.000000
    9      -12.616314   1.000000
   10       -7.968734   1.000000
   11       -7.945857   1.000000
   12       -7.928055   1.000000
   13       -5.259509   1.000000
   14        1.052754   1.000000
   15        1.302626   1.000000
   16        1.498384   1.000000
   17        3.966625   0.000000
   18        4.344038   0.000000
   19        4.856234   0.000000
   20        5.232786   0.000000
 
  0.3750000E+00  0.2500000E+00  0.1250000E+00  0.4687500E-01
    1      -29.142878   1.000000
    2      -29.141799   1.000000
    3      -21.088214   1.000000
    4      -12.713155   1.000000
    5      -12.690415   1.000000
    6      -12.664642   1.000000
    7      -12.662750   1.000000
    8      -12.626790   1.000000
    9      -12.615874   1.000000
   10       -7.963383   1.000000
   11       -7.952362   1.000000
   12       -7.928070   1.000000
   13       -5.253925   1.000000
   14        1.000087   1.000000
   15        1.289736   1.000000
   16        1.460518   1.000000
   17        4.295291   0.000000
   18        4.453856   0.000000
   19        4.575083   0.000000
   20        5.347466   0.000000
 
  0.1250000E+00  0.3750000E+00  0.1250000E+00  0.2343750E-01
    1      -29.143613   1.000000
    2      -29.141026   1.000000
    3      -21.088332   1.000000
    4      -12.717129   1.000000
    5      -12.699017   1.000000
    6      -12.697016   1.000000
    7      -12.632057   1.000000
    8      -12.617251   1.000000
    9      -12.611608   1.000000
   10       -7.978310   1.000000
   11       -7.934452   1.000000
   12       -7.927685   1.000000
   13       -5.271915   1.000000
   14        1.051371   1.000000
   15        1.519757   1.000000
   16        1.535269   1.000000
   17        3.552022   0.000000
   18        4.064762   0.000000
   19        5.205915   0.000000
   20        5.221605   0.000000
 
  0.2500000E+00  0.2500000E+00  0.2500000E+00  0.1171875E-01
    1      -29.142323   1.000000
    2      -29.142323   1.000000
    3      -21.088334   1.000000
    4      -12.720724   1.000000
    5      -12.695488   1.000000
    6      -12.664756   1.000000
    7      -12.664756   1.000000
    8      -12.614900   1.000000
    9      -12.613985   1.000000
   10       -7.956130   1.000000
   11       -7.956129   1.000000
   12       -7.929743   1.000000
   13       -5.260827   1.000000
   14        1.234676   1.000000
   15        1.234676   1.000000
   16        1.386291   1.000000
   17        4.197032   0.000000
   18        4.385874   0.000000
   19        4.385874   0.000000
   20        5.239816   0.000000
