 vasp.5.4.4.18Apr17-6-g9f103f2a35 (build Jun 23 2019 17:35:09) complex          
  
 executed on             LinuxIFC date 2020.01.15  15:39:58
 running on   28 total cores
 distrk:  each k-point on    7 cores,    4 groups
 distr:  one band on NCORES_PER_BAND=   7 cores,    1 groups


--------------------------------------------------------------------------------------------------------


 INCAR:
 POTCAR:    PAW_PBE Cs_sv 08Apr2002               
 POTCAR:    PAW_PBE K_sv 06Sep2000                
 POTCAR:    PAW_PBE Sb 06Sep2000                  

 ----------------------------------------------------------------------------- 
|                                                                             |
|           W    W    AA    RRRRR   N    N  II  N    N   GGGG   !!!           |
|           W    W   A  A   R    R  NN   N  II  NN   N  G    G  !!!           |
|           W    W  A    A  R    R  N N  N  II  N N  N  G       !!!           |
|           W WW W  AAAAAA  RRRRR   N  N N  II  N  N N  G  GGG   !            |
|           WW  WW  A    A  R   R   N   NN  II  N   NN  G    G                |
|           W    W  A    A  R    R  N    N  II  N    N   GGGG   !!!           |
|                                                                             |
|      You have enabled k-point parallelism (KPAR>1).                         |
|      This developmental code was originally  written by Paul Kent at ORNL,  |
|      and carefully double checked in Vienna.                                |
|      GW as well as linear response parallelism added by Martijn Marsman     |
|      and Georg Kresse.                                                      |
|      Carefully verify results versus KPAR=1.                                |
|      Report problems to Paul Kent and Vienna.                               |
|                                                                             |
 ----------------------------------------------------------------------------- 

 POTCAR:    PAW_PBE Cs_sv 08Apr2002               
   VRHFIN =Cs: 5s5p6s                                                           
   LEXCH  = PE                                                                  
   EATOM  =   555.6835 eV,   40.8416 Ry                                         
                                                                                
   TITEL  = PAW_PBE Cs_sv 08Apr2002                                             
   LULTRA =        F    use ultrasoft PP ?                                      
   IUNSCR =        1    unscreen: 0-lin 1-nonlin 2-no                           
   RPACOR =    2.200    partial core radius                                     
   POMASS =  132.900; ZVAL   =    9.000    mass and valenz                      
   RCORE  =    2.500    outmost cutoff radius                                   
   RWIGS  =    2.500; RWIGS  =    1.323    wigner-seitz radius (au A)           
   ENMAX  =  220.318; ENMIN  =  165.238 eV                                      
   RCLOC  =    2.207    cutoff for local pot                                    
   LCOR   =        T    correct aug charges                                     
   LPAW   =        T    paw PP                                                  
   EAUG   =  407.933                                                            
   DEXC   =    0.000                                                            
   RMAX   =    2.554    core radius for proj-oper                               
   RAUG   =    1.300    factor for augmentation sphere                          
   RDEP   =    2.590    radius for radial grids                                 
   RDEPT  =    2.117    core radius for aug-charge                              
                                                                                
   Atomic configuration                                                         
   13 entries                                                                   
     n  l   j            E        occ.                                          
     1  0  0.50    -35790.1377   2.0000                                         
     2  0  0.50     -5613.6201   2.0000                                         
     2  1  1.50     -5035.0101   6.0000                                         
     3  0  0.50     -1167.0767   2.0000                                         
     3  1  1.50      -980.9754   6.0000                                         
     3  2  2.50      -708.0703  10.0000                                         
     4  0  0.50      -220.2386   2.0000                                         
     4  1  1.50      -160.7596   6.0000                                         
     4  2  2.50       -74.2354  10.0000                                         
     5  0  0.50       -26.7287   2.0000                                         
     6  0  0.50        -2.0862   1.0000                                         
     5  1  1.50       -13.5159   6.0000                                         
     5  2  2.50        -0.4136   0.0000                                         
   Description                                                                  
     l       E           TYP  RCUT    TYP  RCUT                                 
     0    -26.7287425     23  1.900                                             
     0     -2.0862306     23  1.900                                             
     1    -13.5158719     23  2.500                                             
     1     -2.7211652     23  2.500                                             
     2     -0.4136171     23  2.500                                             
  local pseudopotential read in
  partial core-charges read in
  partial kinetic energy density read in
  atomic valenz-charges read in
  non local Contribution for L=           0  read in
    real space projection operators read in
  non local Contribution for L=           0  read in
    real space projection operators read in
  non local Contribution for L=           1  read in
    real space projection operators read in
  non local Contribution for L=           1  read in
    real space projection operators read in
  non local Contribution for L=           2  read in
    real space projection operators read in
    PAW grid and wavefunctions read in
 
   number of l-projection  operators is LMAX  =           5
   number of lm-projection operators is LMMAX =          13
 
 POTCAR:    PAW_PBE K_sv 06Sep2000                
   VRHFIN =K:  3s3p4s                                                           
   LEXCH  = PE                                                                  
   EATOM  =   775.0067 eV,   56.9614 Ry                                         
                                                                                
   TITEL  = PAW_PBE K_sv 06Sep2000                                              
   LULTRA =        F    use ultrasoft PP ?                                      
   IUNSCR =        1    unscreen: 0-lin 1-nonlin 2-no                           
   RPACOR =    2.200    partial core radius                                     
   POMASS =   39.098; ZVAL   =    9.000    mass and valenz                      
   RCORE  =    2.300    outmost cutoff radius                                   
   RWIGS  =    3.000; RWIGS  =    1.588    wigner-seitz radius (au A)           
   ENMAX  =  259.264; ENMIN  =  194.448 eV                                      
   RCLOC  =    2.005    cutoff for local pot                                    
   LCOR   =        T    correct aug charges                                     
   LPAW   =        T    paw PP                                                  
   EAUG   =  427.853                                                            
   DEXC   =    0.000                                                            
   RMAX   =    2.358    core radius for proj-oper                               
   RAUG   =    1.300    factor for augmentation sphere                          
   RDEP   =    2.372    radius for radial grids                                 
   RDEPT  =    2.002    core radius for aug-charge                              
                                                                                
   Atomic configuration                                                         
    7 entries                                                                   
     n  l   j            E        occ.                                          
     1  0  0.50     -3522.0595   2.0000                                         
     2  0  0.50      -353.3851   2.0000                                         
     2  1  1.50      -280.0935   6.0000                                         
     3  0  0.50       -35.3419   2.0000                                         
     4  0  0.50        -2.3190   1.0000                                         
     3  1  1.50       -18.8125   6.0000                                         
     3  2  1.50        -1.3606   0.0000                                         
   Description                                                                  
     l       E           TYP  RCUT    TYP  RCUT                                 
     0    -35.3418873     23  2.300                                             
     0     -2.3190215     23  2.300                                             
     1    -18.8124623     23  2.300                                             
     1    -20.4087390     23  2.300                                             
     2     -1.3605826     23  2.300                                             
  local pseudopotential read in
  partial core-charges read in
  partial kinetic energy density read in
  atomic valenz-charges read in
  non local Contribution for L=           0  read in
    real space projection operators read in
  non local Contribution for L=           0  read in
    real space projection operators read in
  non local Contribution for L=           1  read in
    real space projection operators read in
  non local Contribution for L=           1  read in
    real space projection operators read in
  non local Contribution for L=           2  read in
    real space projection operators read in
    PAW grid and wavefunctions read in
 
   number of l-projection  operators is LMAX  =           5
   number of lm-projection operators is LMMAX =          13
 
 POTCAR:    PAW_PBE Sb 06Sep2000                  
   VRHFIN =Sb: s2p3                                                             
   LEXCH  = PE                                                                  
   EATOM  =   149.9515 eV,   11.0211 Ry                                         
                                                                                
   TITEL  = PAW_PBE Sb 06Sep2000                                                
   LULTRA =        F    use ultrasoft PP ?                                      
   IUNSCR =        1    unscreen: 0-lin 1-nonlin 2-no                           
   RPACOR =    2.200    partial core radius                                     
   POMASS =  121.750; ZVAL   =    5.000    mass and valenz                      
   RCORE  =    2.300    outmost cutoff radius                                   
   RWIGS  =    2.980; RWIGS  =    1.577    wigner-seitz radius (au A)           
   ENMAX  =  172.069; ENMIN  =  129.052 eV                                      
   ICORE  =        3    local potential                                         
   LCOR   =        T    correct aug charges                                     
   LPAW   =        T    paw PP                                                  
   EAUG   =  380.513                                                            
   DEXC   =    0.000                                                            
   RMAX   =    2.346    core radius for proj-oper                               
   RAUG   =    1.300    factor for augmentation sphere                          
   RDEP   =    2.360    radius for radial grids                                 
   RDEPT  =    2.192    core radius for aug-charge                              
                                                                                
   Atomic configuration                                                         
   13 entries                                                                   
     n  l   j            E        occ.                                          
     1  0  0.50    -30298.2797   2.0000                                         
     2  0  0.50     -4610.2252   2.0000                                         
     2  1  1.50     -4138.3407   6.0000                                         
     3  0  0.50      -903.8815   2.0000                                         
     3  1  1.50      -750.1337   6.0000                                         
     3  2  2.50      -515.7092  10.0000                                         
     4  0  0.50      -148.8034   2.0000                                         
     4  1  1.50      -101.7581   6.0000                                         
     4  2  2.50       -33.5048  10.0000                                         
     5  0  0.50       -12.8298   2.0000                                         
     5  1  0.50        -4.8276   3.0000                                         
     5  2  1.50        -4.0817   0.0000                                         
     4  3  2.50        -4.0817   0.0000                                         
   Description                                                                  
     l       E           TYP  RCUT    TYP  RCUT                                 
     0    -12.8297861     23  2.300                                             
     0     13.6058260     23  2.300                                             
     1     -4.8275512     23  2.300                                             
     1     -0.7245443     23  2.300                                             
     2     -4.0817478     23  2.300                                             
     3     -1.3605826     23  2.300                                             
  local pseudopotential read in
  partial core-charges read in
  partial kinetic energy density read in
  atomic valenz-charges read in
  non local Contribution for L=           0  read in
    real space projection operators read in
  non local Contribution for L=           0  read in
    real space projection operators read in
  non local Contribution for L=           1  read in
    real space projection operators read in
  non local Contribution for L=           1  read in
    real space projection operators read in
  non local Contribution for L=           2  read in
    real space projection operators read in
    PAW grid and wavefunctions read in
 
   number of l-projection  operators is LMAX  =           5
   number of lm-projection operators is LMMAX =          13
 
  PAW_PBE Cs_sv 08Apr2002               :
 energy of atom  1       EATOM= -555.6835
 kinetic energy error for atom=    0.0016 (will be added to EATOM!!)
  PAW_PBE K_sv 06Sep2000                :
 energy of atom  2       EATOM= -775.0067
 kinetic energy error for atom=    0.0014 (will be added to EATOM!!)
  PAW_PBE Sb 06Sep2000                  :
 energy of atom  3       EATOM= -149.9515
 kinetic energy error for atom=    0.0005 (will be added to EATOM!!)
 
 
 POSCAR: Cs Sb K                                 
  positions in direct lattice
  velocities in cartesian coordinates
 exchange correlation table for  LEXCH =        8
   RHO(1)=    0.500       N(1)  =     2000
   RHO(2)=  100.500       N(2)  =     4000
 


--------------------------------------------------------------------------------------------------------


 ion  position               nearest neighbor table
   1  0.500  0.000  0.500-
   2  0.750  0.500  0.250-   4 3.79   4 3.79   4 3.79   4 3.79
   3  0.250  0.500  0.750-   4 3.79   4 3.79   4 3.79   4 3.79
   4  0.000  0.000  0.000-   2 3.79   3 3.79   2 3.79   3 3.79   2 3.79   3 3.79   2 3.79   3 3.79

 
  LATTYP: Found a face centered cubic cell.
 ALAT       =     8.7605271049
  
  Lattice vectors:
  
 A1 = (  -4.3802635524,   0.0000000000,  -4.3802635524)
 A2 = (   0.0000000000,  -4.3802635524,  -4.3802635524)
 A3 = (  -4.3802635524,  -4.3802635524,   0.0000000000)


Analysis of symmetry for initial positions (statically):
=====================================================================
 Subroutine PRICEL returns:
 Original cell was already a primitive cell.
 

 Routine SETGRP: Setting up the symmetry group for a 
 face centered cubic supercell.


 Subroutine GETGRP returns: Found 48 space group operations
 (whereof 48 operations were pure point group operations)
 out of a pool of 48 trial point group operations.


The static configuration has the point symmetry O_h .


Analysis of symmetry for dynamics (positions and initial velocities):
=====================================================================
 Subroutine PRICEL returns:
 Original cell was already a primitive cell.
 

 Routine SETGRP: Setting up the symmetry group for a 
 face centered cubic supercell.


 Subroutine GETGRP returns: Found 48 space group operations
 (whereof 48 operations were pure point group operations)
 out of a pool of 48 trial point group operations.


The dynamic configuration has the point symmetry O_h .


 Subroutine INISYM returns: Found 48 space group operations
 (whereof 48 operations are pure point group operations),
 and found     1 'primitive' translations

 
 
 KPOINTS: KPOINTS                                 

Automatic generation of k-mesh.
Space group operators:
 irot       det(A)        alpha          n_x          n_y          n_z        tau_x        tau_y        tau_z
    1     1.000000     0.000000     1.000000     0.000000     0.000000     0.000000     0.000000     0.000000
    2    -1.000000     0.000000     1.000000     0.000000     0.000000     0.000000     0.000000     0.000000
    3     1.000000   120.000000     0.577350     0.577350     0.577350     0.000000     0.000000     0.000000
    4    -1.000000   120.000000     0.577350     0.577350     0.577350     0.000000     0.000000     0.000000
    5     1.000000   120.000000    -0.577350    -0.577350    -0.577350     0.000000     0.000000     0.000000
    6    -1.000000   120.000000    -0.577350    -0.577350    -0.577350     0.000000     0.000000     0.000000
    7     1.000000    90.000000     0.000000     0.000000     1.000000     0.000000     0.000000     0.000000
    8    -1.000000    90.000000     0.000000     0.000000     1.000000     0.000000     0.000000     0.000000
    9     1.000000   180.000000     0.707107     0.000000     0.707107     0.000000     0.000000     0.000000
   10    -1.000000   180.000000     0.707107     0.000000     0.707107     0.000000     0.000000     0.000000
   11     1.000000    90.000000    -1.000000     0.000000     0.000000     0.000000     0.000000     0.000000
   12    -1.000000    90.000000    -1.000000     0.000000     0.000000     0.000000     0.000000     0.000000
   13     1.000000   180.000000     0.000000     0.000000     1.000000     0.000000     0.000000     0.000000
   14    -1.000000   180.000000     0.000000     0.000000     1.000000     0.000000     0.000000     0.000000
   15     1.000000   120.000000    -0.577350     0.577350    -0.577350     0.000000     0.000000     0.000000
   16    -1.000000   120.000000    -0.577350     0.577350    -0.577350     0.000000     0.000000     0.000000
   17     1.000000   120.000000    -0.577350     0.577350     0.577350     0.000000     0.000000     0.000000
   18    -1.000000   120.000000    -0.577350     0.577350     0.577350     0.000000     0.000000     0.000000
   19     1.000000    90.000000     0.000000     0.000000    -1.000000     0.000000     0.000000     0.000000
   20    -1.000000    90.000000     0.000000     0.000000    -1.000000     0.000000     0.000000     0.000000
   21     1.000000    90.000000     0.000000     1.000000     0.000000     0.000000     0.000000     0.000000
   22    -1.000000    90.000000     0.000000     1.000000     0.000000     0.000000     0.000000     0.000000
   23     1.000000   180.000000     0.000000     0.707107     0.707107     0.000000     0.000000     0.000000
   24    -1.000000   180.000000     0.000000     0.707107     0.707107     0.000000     0.000000     0.000000
   25     1.000000   120.000000     0.577350    -0.577350    -0.577350     0.000000     0.000000     0.000000
   26    -1.000000   120.000000     0.577350    -0.577350    -0.577350     0.000000     0.000000     0.000000
   27     1.000000   120.000000     0.577350     0.577350    -0.577350     0.000000     0.000000     0.000000
   28    -1.000000   120.000000     0.577350     0.577350    -0.577350     0.000000     0.000000     0.000000
   29     1.000000   180.000000     0.000000     1.000000     0.000000     0.000000     0.000000     0.000000
   30    -1.000000   180.000000     0.000000     1.000000     0.000000     0.000000     0.000000     0.000000
   31     1.000000    90.000000     1.000000     0.000000     0.000000     0.000000     0.000000     0.000000
   32    -1.000000    90.000000     1.000000     0.000000     0.000000     0.000000     0.000000     0.000000
   33     1.000000   180.000000     0.707107     0.707107     0.000000     0.000000     0.000000     0.000000
   34    -1.000000   180.000000     0.707107     0.707107     0.000000     0.000000     0.000000     0.000000
   35     1.000000    90.000000     0.000000    -1.000000     0.000000     0.000000     0.000000     0.000000
   36    -1.000000    90.000000     0.000000    -1.000000     0.000000     0.000000     0.000000     0.000000
   37     1.000000   120.000000     0.577350    -0.577350     0.577350     0.000000     0.000000     0.000000
   38    -1.000000   120.000000     0.577350    -0.577350     0.577350     0.000000     0.000000     0.000000
   39     1.000000   180.000000     1.000000     0.000000     0.000000     0.000000     0.000000     0.000000
   40    -1.000000   180.000000     1.000000     0.000000     0.000000     0.000000     0.000000     0.000000
   41     1.000000   120.000000    -0.577350    -0.577350     0.577350     0.000000     0.000000     0.000000
   42    -1.000000   120.000000    -0.577350    -0.577350     0.577350     0.000000     0.000000     0.000000
   43     1.000000   180.000000     0.707107     0.000000    -0.707107     0.000000     0.000000     0.000000
   44    -1.000000   180.000000     0.707107     0.000000    -0.707107     0.000000     0.000000     0.000000
   45     1.000000   180.000000     0.707107    -0.707107     0.000000     0.000000     0.000000     0.000000
   46    -1.000000   180.000000     0.707107    -0.707107     0.000000     0.000000     0.000000     0.000000
   47     1.000000   180.000000     0.000000    -0.707107     0.707107     0.000000     0.000000     0.000000
   48    -1.000000   180.000000     0.000000    -0.707107     0.707107     0.000000     0.000000     0.000000
 
 Subroutine IBZKPT returns following result:
 ===========================================
 
 Found     29 irreducible k-points:
 
 Following reciprocal coordinates:
            Coordinates               Weight
  0.000000  0.000000  0.000000      1.000000
  0.125000  0.000000  0.000000      8.000000
  0.250000  0.000000  0.000000      8.000000
  0.375000  0.000000  0.000000      8.000000
  0.500000  0.000000  0.000000      4.000000
  0.000000  0.125000  0.000000      6.000000
  0.125000  0.125000  0.000000     24.000000
  0.250000  0.125000  0.000000     24.000000
  0.375000  0.125000  0.000000     24.000000
  0.500000  0.125000  0.000000     24.000000
 -0.375000  0.125000  0.000000     24.000000
 -0.250000  0.125000  0.000000     12.000000
  0.000000  0.250000  0.000000      6.000000
  0.125000  0.250000  0.000000     24.000000
  0.250000  0.250000  0.000000     24.000000
  0.375000  0.250000  0.000000     24.000000
  0.500000  0.250000  0.000000     12.000000
  0.000000  0.375000  0.000000      6.000000
  0.125000  0.375000  0.000000     24.000000
  0.250000  0.375000  0.000000     12.000000
  0.000000  0.500000  0.000000      3.000000
  0.125000  0.125000  0.125000     24.000000
  0.250000  0.125000  0.125000     48.000000
  0.375000  0.125000  0.125000     24.000000
  0.125000  0.250000  0.125000     24.000000
  0.250000  0.250000  0.125000     48.000000
  0.375000  0.250000  0.125000     24.000000
  0.125000  0.375000  0.125000     12.000000
  0.250000  0.250000  0.250000      6.000000
 
 Following cartesian coordinates:
            Coordinates               Weight
  0.000000  0.000000  0.000000      1.000000
  0.014269 -0.014269 -0.014269      8.000000
  0.028537 -0.028537 -0.028537      8.000000
  0.042806 -0.042806 -0.042806      8.000000
  0.057074 -0.057074 -0.057074      4.000000
  0.000000  0.000000 -0.028537      6.000000
  0.014269 -0.014269 -0.042806     24.000000
  0.028537 -0.028537 -0.057074     24.000000
  0.042806 -0.042806 -0.071343     24.000000
  0.057074 -0.057074 -0.085611     24.000000
 -0.042806  0.042806  0.014269     24.000000
 -0.028537  0.028537  0.000000     12.000000
  0.000000  0.000000 -0.057074      6.000000
  0.014269 -0.014269 -0.071343     24.000000
  0.028537 -0.028537 -0.085611     24.000000
  0.042806 -0.042806 -0.099880     24.000000
  0.057074 -0.057074 -0.114148     12.000000
  0.000000  0.000000 -0.085611      6.000000
  0.014269 -0.014269 -0.099880     24.000000
  0.028537 -0.028537 -0.114148     12.000000
  0.000000  0.000000 -0.114148      3.000000
  0.028537  0.000000 -0.057074     24.000000
  0.042806 -0.014269 -0.071343     48.000000
  0.057074 -0.028537 -0.085611     24.000000
  0.028537  0.000000 -0.085611     24.000000
  0.042806 -0.014269 -0.099880     48.000000
  0.057074 -0.028537 -0.114148     24.000000
  0.028537  0.000000 -0.114148     12.000000
  0.057074  0.000000 -0.114148      6.000000
 


--------------------------------------------------------------------------------------------------------




 Dimension of arrays:
   k-points           NKPTS =     29   k-points in BZ     NKDIM =     29   number of bands    NBANDS=     20
   number of dos      NEDOS =    301   number of ions     NIONS =      4
   non local maximal  LDIM  =      5   non local SUM 2l+1 LMDIM =     13
   total plane-waves  NPLWV = 110592
   max r-space proj   IRMAX =      1   max aug-charges    IRDMAX=  36709
   dimension x,y,z NGX =    48 NGY =   48 NGZ =   48
   dimension x,y,z NGXF=    96 NGYF=   96 NGZF=   96
   support grid    NGXF=    96 NGYF=   96 NGZF=   96
   ions per type =               1   2   1
   NGX,Y,Z   is equivalent  to a cutoff of  12.88, 12.88, 12.88 a.u.
   NGXF,Y,Z  is equivalent  to a cutoff of  25.76, 25.76, 25.76 a.u.

 SYSTEM =  unknown system                          
 POSCAR =  Cs Sb K                                 

 Startparameter for this run:
   NWRITE =      2    write-flag & timer
   PREC   = acc       normal or accurate (medium, high low for compatibility)
   ISTART =      0    job   : 0-new  1-cont  2-samecut
   ICHARG =      2    charge: 1-file 2-atom 10-const
   ISPIN  =      1    spin polarized calculation?
   LNONCOLLINEAR =      F non collinear calculations
   LSORBIT =      F    spin-orbit coupling
   INIWAV =      1    electr: 0-lowe 1-rand  2-diag
   LASPH  =      F    aspherical Exc in radial PAW
   METAGGA=      F    non-selfconsistent MetaGGA calc.

 Electronic Relaxation 1
   ENCUT  =  520.0 eV  38.22 Ry    6.18 a.u.  11.52 11.52 11.52*2*pi/ulx,y,z
   ENINI  =  520.0     initial cutoff
   ENAUG  =  427.9 eV  augmentation charge cutoff
   NELM   =    150;   NELMIN=  5; NELMDL= -5     # of ELM steps 
   EDIFF  = 0.1E-07   stopping-criterion for ELM
   LREAL  =      F    real-space projection
   NLSPLINE    = F    spline interpolate recip. space projectors
   LCOMPAT=      F    compatible to vasp.4.4
   GGA_COMPAT  = T    GGA compatible to vasp.4.4-vasp.4.6
   LMAXPAW     = -100 max onsite density
   LMAXMIX     =    2 max onsite mixed and CHGCAR
   VOSKOWN=      0    Vosko Wilk Nusair interpolation
   ROPT   =    0.00000   0.00000   0.00000
 Ionic relaxation
   EDIFFG = 0.1E-06   stopping-criterion for IOM
   NSW    =      0    number of steps for IOM
   NBLOCK =      1;   KBLOCK =      1    inner block; outer block 
   IBRION =     -1    ionic relax: 0-MD 1-quasi-New 2-CG
   NFREE  =      0    steps in history (QN), initial steepest desc. (CG)
   ISIF   =      3    stress and relaxation
   IWAVPR =     10    prediction:  0-non 1-charg 2-wave 3-comb
   ISYM   =      2    0-nonsym 1-usesym 2-fastsym
   LCORR  =      T    Harris-Foulkes like correction to forces

   POTIM  = 0.5000    time-step for ionic-motion
   TEIN   =    0.0    initial temperature
   TEBEG  =    0.0;   TEEND  =   0.0 temperature during run
   SMASS  =  -3.00    Nose mass-parameter (am)
   estimated Nose-frequenzy (Omega)   =  0.10E-29 period in steps =****** mass=  -0.877E-27a.u.
   SCALEE = 1.0000    scale energy and forces
   NPACO  =    256;   APACO  = 16.0  distance and # of slots for P.C.
   PSTRESS=    0.0 pullay stress

  Mass of Ions in am
   POMASS = 132.90 39.10121.75
  Ionic Valenz
   ZVAL   =   9.00  9.00  5.00
  Atomic Wigner-Seitz radii
   RWIGS  =  -1.00 -1.00 -1.00
  virtual crystal weights 
   VCA    =   1.00  1.00  1.00
   NELECT =      32.0000    total number of electrons
   NUPDOWN=      -1.0000    fix difference up-down

 DOS related values:
   EMIN   =  10.00;   EMAX   =-10.00  energy-range for DOS
   EFERMI =   0.00
   ISMEAR =     0;   SIGMA  =   0.05  broadening in eV -4-tet -1-fermi 0-gaus

 Electronic relaxation 2 (details)
   IALGO  =     38    algorithm
   LDIAG  =      T    sub-space diagonalisation (order eigenvalues)
   LSUBROT=      F    optimize rotation matrix (better conditioning)
   TURBO    =      0    0=normal 1=particle mesh
   IRESTART =      0    0=no restart 2=restart with 2 vectors
   NREBOOT  =      0    no. of reboots
   NMIN     =      0    reboot dimension
   EREF     =   0.00    reference energy to select bands
   IMIX   =      4    mixing-type and parameters
     AMIX     =   0.40;   BMIX     =  1.00
     AMIX_MAG =   1.60;   BMIX_MAG =  1.00
     AMIN     =   0.10
     WC   =   100.;   INIMIX=   1;  MIXPRE=   1;  MAXMIX= -45

 Intra band minimization:
   WEIMIN = 0.0000     energy-eigenvalue tresh-hold
   EBREAK =  0.13E-09  absolut break condition
   DEPER  =   0.30     relativ break condition  

   TIME   =   0.40     timestep for ELM

  volume/ion in A,a.u.               =      42.02       283.57
  Fermi-wavevector in a.u.,A,eV,Ry     =   0.941777  1.779700 12.067596  0.886943
  Thomas-Fermi vector in A             =   2.069321
 
 Write flags
   LWAVE        =      F    write WAVECAR
   LDOWNSAMPLE  =      F    k-point downsampling of WAVECAR
   LCHARG       =      F    write CHGCAR
   LVTOT        =      F    write LOCPOT, total local potential
   LVHAR        =      F    write LOCPOT, Hartree potential only
   LELF         =      F    write electronic localiz. function (ELF)
   LORBIT       =      0    0 simple, 1 ext, 2 COOP (PROOUT), +10 PAW based schemes


 Dipole corrections
   LMONO  =      F    monopole corrections only (constant potential shift)
   LDIPOL =      F    correct potential (dipole corrections)
   IDIPOL =      0    1-x, 2-y, 3-z, 4-all directions 
   EPSILON=  1.0000000 bulk dielectric constant

 Exchange correlation treatment:
   GGA     =    PE    GGA type
   LEXCH   =     8    internal setting for exchange type
   VOSKOWN=      0    Vosko Wilk Nusair interpolation
   LHFCALC =     F    Hartree Fock is set to
   LHFONE  =     F    Hartree Fock one center treatment
   AEXX    =    0.0000 exact exchange contribution

 Linear response parameters
   LEPSILON=     F    determine dielectric tensor
   LRPA    =     F    only Hartree local field effects (RPA)
   LNABLA  =     F    use nabla operator in PAW spheres
   LVEL    =     F    velocity operator in full k-point grid
   LINTERFAST=   F  fast interpolation
   KINTER  =     0    interpolate to denser k-point grid
   CSHIFT  =0.1000    complex shift for real part using Kramers Kronig
   OMEGAMAX=  -1.0    maximum frequency
   DEG_THRESHOLD= 0.2000000E-02 threshold for treating states as degnerate
   RTIME   =   -0.100 relaxation time in fs
  (WPLASMAI=    0.000 imaginary part of plasma frequency in eV, 0.658/RTIME)
   DFIELD  = 0.0000000 0.0000000 0.0000000 field for delta impulse in time
 
 Orbital magnetization related:
   ORBITALMAG=     F  switch on orbital magnetization
   LCHIMAG   =     F  perturbation theory with respect to B field
   DQ        =  0.001000  dq finite difference perturbation B field
   LLRAUG    =     F  two centre corrections for induced B field



--------------------------------------------------------------------------------------------------------


 Static calculation
 charge density and potential will be updated during run
 non-spin polarized calculation
 Variant of blocked Davidson
 Davidson routine will perform the subspace rotation
 perform sub-space diagonalisation
    after iterative eigenvector-optimisation
 modified Broyden-mixing scheme, WC =      100.0
 initial mixing is a Kerker type mixing with AMIX =  0.4000 and BMIX =      1.0000
 Hartree-type preconditioning will be used
 using additional bands            4
 reciprocal scheme for non local part
 use partial core corrections
 calculate Harris-corrections to forces 
   (improved forces if not selfconsistent)
 use gradient corrections 
 use of overlap-Matrix (Vanderbilt PP)
 Gauss-broadening in eV      SIGMA  =   0.05


--------------------------------------------------------------------------------------------------------


  energy-cutoff  :      520.00
  volume of cell :      168.09
      direct lattice vectors                 reciprocal lattice vectors
     4.380263552 -4.380263552  0.000000000     0.114148383 -0.114148383 -0.114148383
    -4.380263552  0.000000000 -4.380263552     0.000000000  0.000000000 -0.228296765
     4.380263552  4.380263552  0.000000000     0.114148383  0.114148383 -0.114148383

  length of vectors
     6.194628123  6.194628123  6.194628123     0.197710798  0.228296765  0.197710798


 
 k-points in units of 2pi/SCALE and weight: KPOINTS                                 
   0.00000000  0.00000000  0.00000000       0.002
   0.01426855 -0.01426855 -0.01426855       0.016
   0.02853710 -0.02853710 -0.02853710       0.016
   0.04280564 -0.04280564 -0.04280564       0.016
   0.05707419 -0.05707419 -0.05707419       0.008
   0.00000000  0.00000000 -0.02853710       0.012
   0.01426855 -0.01426855 -0.04280564       0.047
   0.02853710 -0.02853710 -0.05707419       0.047
   0.04280564 -0.04280564 -0.07134274       0.047
   0.05707419 -0.05707419 -0.08561129       0.047
  -0.04280564  0.04280564  0.01426855       0.047
  -0.02853710  0.02853710  0.00000000       0.023
   0.00000000  0.00000000 -0.05707419       0.012
   0.01426855 -0.01426855 -0.07134274       0.047
   0.02853710 -0.02853710 -0.08561129       0.047
   0.04280564 -0.04280564 -0.09987983       0.047
   0.05707419 -0.05707419 -0.11414838       0.023
   0.00000000  0.00000000 -0.08561129       0.012
   0.01426855 -0.01426855 -0.09987983       0.047
   0.02853710 -0.02853710 -0.11414838       0.023
   0.00000000  0.00000000 -0.11414838       0.006
   0.02853710  0.00000000 -0.05707419       0.047
   0.04280564 -0.01426855 -0.07134274       0.094
   0.05707419 -0.02853710 -0.08561129       0.047
   0.02853710  0.00000000 -0.08561129       0.047
   0.04280564 -0.01426855 -0.09987983       0.094
   0.05707419 -0.02853710 -0.11414838       0.047
   0.02853710  0.00000000 -0.11414838       0.023
   0.05707419  0.00000000 -0.11414838       0.012
 
 k-points in reciprocal lattice and weights: KPOINTS                                 
   0.00000000  0.00000000  0.00000000       0.002
   0.12500000  0.00000000  0.00000000       0.016
   0.25000000  0.00000000  0.00000000       0.016
   0.37500000  0.00000000  0.00000000       0.016
   0.50000000  0.00000000  0.00000000       0.008
   0.00000000  0.12500000  0.00000000       0.012
   0.12500000  0.12500000  0.00000000       0.047
   0.25000000  0.12500000  0.00000000       0.047
   0.37500000  0.12500000  0.00000000       0.047
   0.50000000  0.12500000  0.00000000       0.047
  -0.37500000  0.12500000  0.00000000       0.047
  -0.25000000  0.12500000  0.00000000       0.023
   0.00000000  0.25000000  0.00000000       0.012
   0.12500000  0.25000000  0.00000000       0.047
   0.25000000  0.25000000  0.00000000       0.047
   0.37500000  0.25000000  0.00000000       0.047
   0.50000000  0.25000000  0.00000000       0.023
   0.00000000  0.37500000  0.00000000       0.012
   0.12500000  0.37500000  0.00000000       0.047
   0.25000000  0.37500000  0.00000000       0.023
   0.00000000  0.50000000  0.00000000       0.006
   0.12500000  0.12500000  0.12500000       0.047
   0.25000000  0.12500000  0.12500000       0.094
   0.37500000  0.12500000  0.12500000       0.047
   0.12500000  0.25000000  0.12500000       0.047
   0.25000000  0.25000000  0.12500000       0.094
   0.37500000  0.25000000  0.12500000       0.047
   0.12500000  0.37500000  0.12500000       0.023
   0.25000000  0.25000000  0.25000000       0.012
 
 position of ions in fractional coordinates (direct lattice) 
   0.50000046  0.00000000  0.50000046
   0.74999897  0.49999931  0.24999966
   0.24999966  0.49999931  0.74999897
   0.00000000  0.00000000  0.00000000
 
 position of ions in cartesian coordinates  (Angst):
   4.38026756  0.00000000  0.00000000
   2.19012877 -2.19012877 -2.19012877
   2.19012877  2.19012877 -2.19012877
   0.00000000  0.00000000  0.00000000
 


--------------------------------------------------------------------------------------------------------


 k-point  1 :   0.0000 0.0000 0.0000  plane waves:    4573
 k-point  2 :   0.1250 0.0000 0.0000  plane waves:    4546
 k-point  3 :   0.2500 0.0000 0.0000  plane waves:    4537
 k-point  4 :   0.3750 0.0000 0.0000  plane waves:    4537
 k-point  5 :   0.5000 0.0000 0.0000  plane waves:    4512
 k-point  6 :   0.0000 0.1250 0.0000  plane waves:    4549
 k-point  7 :   0.1250 0.1250 0.0000  plane waves:    4534
 k-point  8 :   0.2500 0.1250 0.0000  plane waves:    4538
 k-point  9 :   0.3750 0.1250 0.0000  plane waves:    4510
 k-point 10 :   0.5000 0.1250 0.0000  plane waves:    4528
 k-point 11 :  -0.3750 0.1250 0.0000  plane waves:    4547
 k-point 12 :  -0.2500 0.1250 0.0000  plane waves:    4549
 k-point 13 :   0.0000 0.2500 0.0000  plane waves:    4552
 k-point 14 :   0.1250 0.2500 0.0000  plane waves:    4528
 k-point 15 :   0.2500 0.2500 0.0000  plane waves:    4514
 k-point 16 :   0.3750 0.2500 0.0000  plane waves:    4525
 k-point 17 :   0.5000 0.2500 0.0000  plane waves:    4514
 k-point 18 :   0.0000 0.3750 0.0000  plane waves:    4536
 k-point 19 :   0.1250 0.3750 0.0000  plane waves:    4525
 k-point 20 :   0.2500 0.3750 0.0000  plane waves:    4526
 k-point 21 :   0.0000 0.5000 0.0000  plane waves:    4488
 k-point 22 :   0.1250 0.1250 0.1250  plane waves:    4544
 k-point 23 :   0.2500 0.1250 0.1250  plane waves:    4530
 k-point 24 :   0.3750 0.1250 0.1250  plane waves:    4508
 k-point 25 :   0.1250 0.2500 0.1250  plane waves:    4510
 k-point 26 :   0.2500 0.2500 0.1250  plane waves:    4521
 k-point 27 :   0.3750 0.2500 0.1250  plane waves:    4524
 k-point 28 :   0.1250 0.3750 0.1250  plane waves:    4530
 k-point 29 :   0.2500 0.2500 0.2500  plane waves:    4540

 maximum and minimum number of plane-waves per node :       662      634

 maximum number of plane-waves:      4573
 maximum index in each direction: 
   IXMAX=   11   IYMAX=   11   IZMAX=   11
   IXMIN=  -12   IYMIN=  -12   IZMIN=  -11


 parallel 3D FFT for wavefunctions:
    minimum data exchange during FFTs selected (reduces bandwidth)
 parallel 3D FFT for charge:
    minimum data exchange during FFTs selected (reduces bandwidth)


 total amount of memory used by VASP MPI-rank0    56208. kBytes
=======================================================================

   base      :      30000. kBytes
   nonl-proj :       6032. kBytes
   fftplans  :       4867. kBytes
   grid      :       9037. kBytes
   one-center:          8. kBytes
   wavefun   :       6264. kBytes
 
     INWAV:  cpu time    0.0000: real time    0.0000
 Broyden mixing: mesh for mixing (old mesh)
   NGX = 23   NGY = 23   NGZ = 23
  (NGX  = 96   NGY  = 96   NGZ  = 96)
  gives a total of  12167 points

 initial charge density was supplied:
 charge density of overlapping atoms calculated
 number of electron      32.0000000 magnetization 
 keeping initial charge density in first step


--------------------------------------------------------------------------------------------------------


 Maximum index for augmentation-charges         5424 (set IRDMAX)


--------------------------------------------------------------------------------------------------------


 First call to EWALD:  gamma=   0.321
 Maximum number of real-space cells 3x 3x 3
 Maximum number of reciprocal cells 3x 3x 3

    FEWALD:  cpu time    0.0015: real time    0.0015


--------------------------------------- Iteration      1(   1)  ---------------------------------------


    POTLOK:  cpu time    0.0791: real time    0.0807
    SETDIJ:  cpu time    0.0112: real time    0.0112
     EDDAV:  cpu time    0.3757: real time    0.3759
       DOS:  cpu time    0.0006: real time    0.0006
    --------------------------------------------
      LOOP:  cpu time    0.4666: real time    0.4685

 eigenvalue-minimisations  :  1160
 total energy-change (2. order) : 0.2311905E+03  (-0.1335990E+04)
 number of electron      32.0000000 magnetization 
 augmentation part       32.0000000 magnetization 

 Free energy of the ion-electron system (eV)
  ---------------------------------------------------
  alpha Z        PSCENC =        88.25421461
  Ewald energy   TEWEN  =     -1567.71660157
  -Hartree energ DENC   =      -541.51905130
  -exchange      EXHF   =         0.00000000
  -V(xc)+E(xc)   XCENC  =        35.18803896
  PAW double counting   =      1776.42413506    -1705.39518631
  entropy T*S    EENTRO =        -0.00210196
  eigenvalues    EBANDS =      -109.68652808
  atomic energy  EATOM  =      2255.64356714
  Solvation  Ediel_sol  =         0.00000000
  ---------------------------------------------------
  free energy    TOTEN  =       231.19048654 eV

  energy without entropy =      231.19258850  energy(sigma->0) =      231.19153752


--------------------------------------------------------------------------------------------------------




--------------------------------------- Iteration      1(   2)  ---------------------------------------


     EDDAV:  cpu time    0.4133: real time    0.4153
       DOS:  cpu time    0.0005: real time    0.0005
    --------------------------------------------
      LOOP:  cpu time    0.4138: real time    0.4158

 eigenvalue-minimisations  :  1472
 total energy-change (2. order) :-0.2209342E+03  (-0.2155126E+03)
 number of electron      32.0000000 magnetization 
 augmentation part       32.0000000 magnetization 

 Free energy of the ion-electron system (eV)
  ---------------------------------------------------
  alpha Z        PSCENC =        88.25421461
  Ewald energy   TEWEN  =     -1567.71660157
  -Hartree energ DENC   =      -541.51905130
  -exchange      EXHF   =         0.00000000
  -V(xc)+E(xc)   XCENC  =        35.18803896
  PAW double counting   =      1776.42413506    -1705.39518631
  entropy T*S    EENTRO =        -0.00127110
  eigenvalues    EBANDS =      -330.62156818
  atomic energy  EATOM  =      2255.64356714
  Solvation  Ediel_sol  =         0.00000000
  ---------------------------------------------------
  free energy    TOTEN  =        10.25627730 eV

  energy without entropy =       10.25754840  energy(sigma->0) =       10.25691285


--------------------------------------------------------------------------------------------------------




--------------------------------------- Iteration      1(   3)  ---------------------------------------


     EDDAV:  cpu time    0.4883: real time    0.4889
       DOS:  cpu time    0.0003: real time    0.0003
    --------------------------------------------
      LOOP:  cpu time    0.4886: real time    0.4891

 eigenvalue-minimisations  :  1840
 total energy-change (2. order) :-0.1925311E+02  (-0.1904144E+02)
 number of electron      32.0000000 magnetization 
 augmentation part       32.0000000 magnetization 

 Free energy of the ion-electron system (eV)
  ---------------------------------------------------
  alpha Z        PSCENC =        88.25421461
  Ewald energy   TEWEN  =     -1567.71660157
  -Hartree energ DENC   =      -541.51905130
  -exchange      EXHF   =         0.00000000
  -V(xc)+E(xc)   XCENC  =        35.18803896
  PAW double counting   =      1776.42413506    -1705.39518631
  entropy T*S    EENTRO =        -0.00000000
  eigenvalues    EBANDS =      -349.87595044
  atomic energy  EATOM  =      2255.64356714
  Solvation  Ediel_sol  =         0.00000000
  ---------------------------------------------------
  free energy    TOTEN  =        -8.99683386 eV

  energy without entropy =       -8.99683386  energy(sigma->0) =       -8.99683386


--------------------------------------------------------------------------------------------------------




--------------------------------------- Iteration      1(   4)  ---------------------------------------


     EDDAV:  cpu time    0.4654: real time    0.4660
       DOS:  cpu time    0.0002: real time    0.0002
    --------------------------------------------
      LOOP:  cpu time    0.4657: real time    0.4663

 eigenvalue-minimisations  :  1652
 total energy-change (2. order) :-0.6712448E+00  (-0.6680869E+00)
 number of electron      32.0000000 magnetization 
 augmentation part       32.0000000 magnetization 

 Free energy of the ion-electron system (eV)
  ---------------------------------------------------
  alpha Z        PSCENC =        88.25421461
  Ewald energy   TEWEN  =     -1567.71660157
  -Hartree energ DENC   =      -541.51905130
  -exchange      EXHF   =         0.00000000
  -V(xc)+E(xc)   XCENC  =        35.18803896
  PAW double counting   =      1776.42413506    -1705.39518631
  entropy T*S    EENTRO =        -0.00000000
  eigenvalues    EBANDS =      -350.54719524
  atomic energy  EATOM  =      2255.64356714
  Solvation  Ediel_sol  =         0.00000000
  ---------------------------------------------------
  free energy    TOTEN  =        -9.66807865 eV

  energy without entropy =       -9.66807865  energy(sigma->0) =       -9.66807865


--------------------------------------------------------------------------------------------------------




--------------------------------------- Iteration      1(   5)  ---------------------------------------


     EDDAV:  cpu time    0.4550: real time    0.4554
       DOS:  cpu time    0.0003: real time    0.0003
    CHARGE:  cpu time    0.0534: real time    0.0534
    MIXING:  cpu time    0.0047: real time    0.0047
    --------------------------------------------
      LOOP:  cpu time    0.5134: real time    0.5138

 eigenvalue-minimisations  :  1684
 total energy-change (2. order) :-0.2728178E-01  (-0.2727763E-01)
 number of electron      32.0000000 magnetization 
 augmentation part        0.1111580 magnetization 

 Broyden mixing:
  rms(total) = 0.47195E+00    rms(broyden)= 0.47195E+00
  rms(prec ) = 0.11560E+01
  weight for this iteration     100.00

 Free energy of the ion-electron system (eV)
  ---------------------------------------------------
  alpha Z        PSCENC =        88.25421461
  Ewald energy   TEWEN  =     -1567.71660157
  -Hartree energ DENC   =      -541.51905130
  -exchange      EXHF   =         0.00000000
  -V(xc)+E(xc)   XCENC  =        35.18803896
  PAW double counting   =      1776.42413506    -1705.39518631
  entropy T*S    EENTRO =        -0.00000000
  eigenvalues    EBANDS =      -350.57447701
  atomic energy  EATOM  =      2255.64356714
  Solvation  Ediel_sol  =         0.00000000
  ---------------------------------------------------
  free energy    TOTEN  =        -9.69536043 eV

  energy without entropy =       -9.69536043  energy(sigma->0) =       -9.69536043


--------------------------------------------------------------------------------------------------------




--------------------------------------- Iteration      1(   6)  ---------------------------------------


    POTLOK:  cpu time    0.0844: real time    0.0882
    SETDIJ:  cpu time    0.0121: real time    0.0121
     EDDAV:  cpu time    0.3903: real time    0.3907
       DOS:  cpu time    0.0003: real time    0.0003
    CHARGE:  cpu time    0.0500: real time    0.0501
    MIXING:  cpu time    0.0050: real time    0.0050
    --------------------------------------------
      LOOP:  cpu time    0.5420: real time    0.5464

 eigenvalue-minimisations  :  1308
 total energy-change (2. order) : 0.9246167E+00  (-0.1721387E+00)
 number of electron      32.0000000 magnetization 
 augmentation part        0.1395200 magnetization 

 Broyden mixing:
  rms(total) = 0.37423E+00    rms(broyden)= 0.37423E+00
  rms(prec ) = 0.58713E+00
  weight for this iteration     100.00

 eigenvalues of (default mixing * dielectric matrix)
  average eigenvalue GAMMA=   1.5655
  1.5655

 Free energy of the ion-electron system (eV)
  ---------------------------------------------------
  alpha Z        PSCENC =        88.25421461
  Ewald energy   TEWEN  =     -1567.71660157
  -Hartree energ DENC   =      -534.45260800
  -exchange      EXHF   =         0.00000000
  -V(xc)+E(xc)   XCENC  =        35.17605961
  PAW double counting   =      1800.87160751    -1730.89752859
  entropy T*S    EENTRO =        -0.00000000
  eigenvalues    EBANDS =      -355.64945442
  atomic energy  EATOM  =      2255.64356714
  Solvation  Ediel_sol  =         0.00000000
  ---------------------------------------------------
  free energy    TOTEN  =        -8.77074371 eV

  energy without entropy =       -8.77074371  energy(sigma->0) =       -8.77074371


--------------------------------------------------------------------------------------------------------




--------------------------------------- Iteration      1(   7)  ---------------------------------------


    POTLOK:  cpu time    0.0803: real time    0.0808
    SETDIJ:  cpu time    0.0068: real time    0.0068
     EDDAV:  cpu time    0.4522: real time    0.4524
       DOS:  cpu time    0.0003: real time    0.0003
    CHARGE:  cpu time    0.0507: real time    0.0507
    MIXING:  cpu time    0.0044: real time    0.0044
    --------------------------------------------
      LOOP:  cpu time    0.5946: real time    0.5952

 eigenvalue-minimisations  :  1652
 total energy-change (2. order) : 0.1106746E+00  (-0.1105726E+00)
 number of electron      32.0000000 magnetization 
 augmentation part        0.1310407 magnetization 

 Broyden mixing:
  rms(total) = 0.22519E+00    rms(broyden)= 0.22519E+00
  rms(prec ) = 0.27207E+00
  weight for this iteration     100.00

 eigenvalues of (default mixing * dielectric matrix)
  average eigenvalue GAMMA=   2.0566
  2.0566  2.0566

 Free energy of the ion-electron system (eV)
  ---------------------------------------------------
  alpha Z        PSCENC =        88.25421461
  Ewald energy   TEWEN  =     -1567.71660157
  -Hartree energ DENC   =      -529.07125549
  -exchange      EXHF   =         0.00000000
  -V(xc)+E(xc)   XCENC  =        35.18349363
  PAW double counting   =      1850.08253736    -1780.92617641
  entropy T*S    EENTRO =        -0.00000000
  eigenvalues    EBANDS =      -360.10984843
  atomic energy  EATOM  =      2255.64356714
  Solvation  Ediel_sol  =         0.00000000
  ---------------------------------------------------
  free energy    TOTEN  =        -8.66006915 eV

  energy without entropy =       -8.66006915  energy(sigma->0) =       -8.66006915


--------------------------------------------------------------------------------------------------------




--------------------------------------- Iteration      1(   8)  ---------------------------------------


    POTLOK:  cpu time    0.0815: real time    0.0830
    SETDIJ:  cpu time    0.0065: real time    0.0065
     EDDAV:  cpu time    0.4008: real time    0.4010
       DOS:  cpu time    0.0003: real time    0.0003
    CHARGE:  cpu time    0.0489: real time    0.0489
    MIXING:  cpu time    0.0040: real time    0.0040
    --------------------------------------------
      LOOP:  cpu time    0.5420: real time    0.5436

 eigenvalue-minimisations  :  1344
 total energy-change (2. order) :-0.1986283E-01  (-0.2767400E-01)
 number of electron      32.0000000 magnetization 
 augmentation part        0.0929226 magnetization 

 Broyden mixing:
  rms(total) = 0.59843E-01    rms(broyden)= 0.59843E-01
  rms(prec ) = 0.14894E+00
  weight for this iteration     100.00

 eigenvalues of (default mixing * dielectric matrix)
  average eigenvalue GAMMA=   1.6332
  2.2828  1.3084  1.3084

 Free energy of the ion-electron system (eV)
  ---------------------------------------------------
  alpha Z        PSCENC =        88.25421461
  Ewald energy   TEWEN  =     -1567.71660157
  -Hartree energ DENC   =      -529.18649064
  -exchange      EXHF   =         0.00000000
  -V(xc)+E(xc)   XCENC  =        35.27132958
  PAW double counting   =      1905.05207555    -1835.66247334
  entropy T*S    EENTRO =        -0.00000000
  eigenvalues    EBANDS =      -360.33555332
  atomic energy  EATOM  =      2255.64356714
  Solvation  Ediel_sol  =         0.00000000
  ---------------------------------------------------
  free energy    TOTEN  =        -8.67993198 eV

  energy without entropy =       -8.67993198  energy(sigma->0) =       -8.67993198


--------------------------------------------------------------------------------------------------------




--------------------------------------- Iteration      1(   9)  ---------------------------------------


    POTLOK:  cpu time    0.0805: real time    0.0809
    SETDIJ:  cpu time    0.0069: real time    0.0069
     EDDAV:  cpu time    0.3895: real time    0.3896
       DOS:  cpu time    0.0003: real time    0.0003
    CHARGE:  cpu time    0.0490: real time    0.0490
    MIXING:  cpu time    0.0042: real time    0.0042
    --------------------------------------------
      LOOP:  cpu time    0.5303: real time    0.5308

 eigenvalue-minimisations  :  1352
 total energy-change (2. order) : 0.1680550E-01  (-0.9095621E-02)
 number of electron      32.0000000 magnetization 
 augmentation part        0.0990362 magnetization 

 Broyden mixing:
  rms(total) = 0.22805E-01    rms(broyden)= 0.22805E-01
  rms(prec ) = 0.29537E-01
  weight for this iteration     100.00

 eigenvalues of (default mixing * dielectric matrix)
  average eigenvalue GAMMA=   1.3321
  2.2292  1.3690  1.3690  0.3611

 Free energy of the ion-electron system (eV)
  ---------------------------------------------------
  alpha Z        PSCENC =        88.25421461
  Ewald energy   TEWEN  =     -1567.71660157
  -Hartree energ DENC   =      -528.19456914
  -exchange      EXHF   =         0.00000000
  -V(xc)+E(xc)   XCENC  =        35.28177034
  PAW double counting   =      1905.18880907    -1835.93055011
  entropy T*S    EENTRO =        -0.00000000
  eigenvalues    EBANDS =      -361.18976683
  atomic energy  EATOM  =      2255.64356714
  Solvation  Ediel_sol  =         0.00000000
  ---------------------------------------------------
  free energy    TOTEN  =        -8.66312648 eV

  energy without entropy =       -8.66312648  energy(sigma->0) =       -8.66312648


--------------------------------------------------------------------------------------------------------




--------------------------------------- Iteration      1(  10)  ---------------------------------------


    POTLOK:  cpu time    0.0813: real time    0.0818
    SETDIJ:  cpu time    0.0060: real time    0.0060
     EDDAV:  cpu time    0.4447: real time    0.4454
       DOS:  cpu time    0.0003: real time    0.0003
    CHARGE:  cpu time    0.0489: real time    0.0489
    MIXING:  cpu time    0.0044: real time    0.0044
    --------------------------------------------
      LOOP:  cpu time    0.5856: real time    0.5868

 eigenvalue-minimisations  :  1620
 total energy-change (2. order) :-0.1208829E-02  (-0.8457754E-03)
 number of electron      32.0000000 magnetization 
 augmentation part        0.0929692 magnetization 

 Broyden mixing:
  rms(total) = 0.73589E-02    rms(broyden)= 0.73589E-02
  rms(prec ) = 0.12877E-01
  weight for this iteration     100.00

 eigenvalues of (default mixing * dielectric matrix)
  average eigenvalue GAMMA=   1.7184
  2.7902  2.7902  1.1248  1.1248  0.7620

 Free energy of the ion-electron system (eV)
  ---------------------------------------------------
  alpha Z        PSCENC =        88.25421461
  Ewald energy   TEWEN  =     -1567.71660157
  -Hartree energ DENC   =      -528.44617635
  -exchange      EXHF   =         0.00000000
  -V(xc)+E(xc)   XCENC  =        35.29877619
  PAW double counting   =      1897.21657682    -1827.82142914
  entropy T*S    EENTRO =        -0.00000000
  eigenvalues    EBANDS =      -361.09326301
  atomic energy  EATOM  =      2255.64356714
  Solvation  Ediel_sol  =         0.00000000
  ---------------------------------------------------
  free energy    TOTEN  =        -8.66433531 eV

  energy without entropy =       -8.66433531  energy(sigma->0) =       -8.66433531


--------------------------------------------------------------------------------------------------------




--------------------------------------- Iteration      1(  11)  ---------------------------------------


    POTLOK:  cpu time    0.0816: real time    0.0820
    SETDIJ:  cpu time    0.0059: real time    0.0059
     EDDAV:  cpu time    0.3987: real time    0.3987
       DOS:  cpu time    0.0003: real time    0.0003
    CHARGE:  cpu time    0.0491: real time    0.0491
    MIXING:  cpu time    0.0042: real time    0.0042
    --------------------------------------------
      LOOP:  cpu time    0.5398: real time    0.5403

 eigenvalue-minimisations  :  1400
 total energy-change (2. order) :-0.1173977E-03  (-0.2903124E-04)
 number of electron      32.0000000 magnetization 
 augmentation part        0.0930466 magnetization 

 Broyden mixing:
  rms(total) = 0.73422E-02    rms(broyden)= 0.73422E-02
  rms(prec ) = 0.80081E-02
  weight for this iteration     100.00

 eigenvalues of (default mixing * dielectric matrix)
  average eigenvalue GAMMA=   1.6242
  2.8595  2.3554  1.2576  1.2576  1.0074  1.0074

 Free energy of the ion-electron system (eV)
  ---------------------------------------------------
  alpha Z        PSCENC =        88.25421461
  Ewald energy   TEWEN  =     -1567.71660157
  -Hartree energ DENC   =      -528.59369111
  -exchange      EXHF   =         0.00000000
  -V(xc)+E(xc)   XCENC  =        35.31356360
  PAW double counting   =      1897.91296693    -1828.41856615
  entropy T*S    EENTRO =        -0.00000000
  eigenvalues    EBANDS =      -361.05990617
  atomic energy  EATOM  =      2255.64356714
  Solvation  Ediel_sol  =         0.00000000
  ---------------------------------------------------
  free energy    TOTEN  =        -8.66445271 eV

  energy without entropy =       -8.66445271  energy(sigma->0) =       -8.66445271


--------------------------------------------------------------------------------------------------------




--------------------------------------- Iteration      1(  12)  ---------------------------------------


    POTLOK:  cpu time    0.0806: real time    0.0812
    SETDIJ:  cpu time    0.0064: real time    0.0064
     EDDAV:  cpu time    0.4622: real time    0.4624
       DOS:  cpu time    0.0003: real time    0.0003
    CHARGE:  cpu time    0.0491: real time    0.0491
    MIXING:  cpu time    0.0043: real time    0.0043
    --------------------------------------------
      LOOP:  cpu time    0.6030: real time    0.6038

 eigenvalue-minimisations  :  1672
 total energy-change (2. order) : 0.3872435E-05  (-0.5065562E-05)
 number of electron      32.0000000 magnetization 
 augmentation part        0.0927561 magnetization 

 Broyden mixing:
  rms(total) = 0.26636E-02    rms(broyden)= 0.26636E-02
  rms(prec ) = 0.29140E-02
  weight for this iteration     100.00

 eigenvalues of (default mixing * dielectric matrix)
  average eigenvalue GAMMA=   1.7249
  2.8798  2.8798  2.0853  1.1512  1.1512  1.1397  0.7876

 Free energy of the ion-electron system (eV)
  ---------------------------------------------------
  alpha Z        PSCENC =        88.25421461
  Ewald energy   TEWEN  =     -1567.71660157
  -Hartree energ DENC   =      -528.56796781
  -exchange      EXHF   =         0.00000000
  -V(xc)+E(xc)   XCENC  =        35.31322395
  PAW double counting   =      1901.37658818    -1831.89012569
  entropy T*S    EENTRO =        -0.00000000
  eigenvalues    EBANDS =      -361.07734765
  atomic energy  EATOM  =      2255.64356714
  Solvation  Ediel_sol  =         0.00000000
  ---------------------------------------------------
  free energy    TOTEN  =        -8.66444883 eV

  energy without entropy =       -8.66444883  energy(sigma->0) =       -8.66444883


--------------------------------------------------------------------------------------------------------




--------------------------------------- Iteration      1(  13)  ---------------------------------------


    POTLOK:  cpu time    0.0811: real time    0.0815
    SETDIJ:  cpu time    0.0062: real time    0.0062
     EDDAV:  cpu time    0.4918: real time    0.4923
       DOS:  cpu time    0.0003: real time    0.0003
    CHARGE:  cpu time    0.0504: real time    0.0504
    MIXING:  cpu time    0.0049: real time    0.0049
    --------------------------------------------
      LOOP:  cpu time    0.6346: real time    0.6355

 eigenvalue-minimisations  :  1884
 total energy-change (2. order) :-0.3779643E-05  (-0.9791909E-06)
 number of electron      32.0000000 magnetization 
 augmentation part        0.0929915 magnetization 

 Broyden mixing:
  rms(total) = 0.54797E-03    rms(broyden)= 0.54796E-03
  rms(prec ) = 0.63793E-03
  weight for this iteration     100.00

 eigenvalues of (default mixing * dielectric matrix)
  average eigenvalue GAMMA=   1.6891
  3.0592  2.5152  2.1251  1.6463  1.1792  1.1792  0.9729  0.8353

 Free energy of the ion-electron system (eV)
  ---------------------------------------------------
  alpha Z        PSCENC =        88.25421461
  Ewald energy   TEWEN  =     -1567.71660157
  -Hartree energ DENC   =      -528.60196645
  -exchange      EXHF   =         0.00000000
  -V(xc)+E(xc)   XCENC  =        35.31437218
  PAW double counting   =      1902.86420863    -1833.36167230
  entropy T*S    EENTRO =        -0.00000000
  eigenvalues    EBANDS =      -361.06057486
  atomic energy  EATOM  =      2255.64356714
  Solvation  Ediel_sol  =         0.00000000
  ---------------------------------------------------
  free energy    TOTEN  =        -8.66445261 eV

  energy without entropy =       -8.66445261  energy(sigma->0) =       -8.66445261


--------------------------------------------------------------------------------------------------------




--------------------------------------- Iteration      1(  14)  ---------------------------------------


    POTLOK:  cpu time    0.0832: real time    0.0843
    SETDIJ:  cpu time    0.0059: real time    0.0059
     EDDAV:  cpu time    0.4284: real time    0.4286
       DOS:  cpu time    0.0003: real time    0.0003
    CHARGE:  cpu time    0.0492: real time    0.0492
    MIXING:  cpu time    0.0045: real time    0.0045
    --------------------------------------------
      LOOP:  cpu time    0.5716: real time    0.5729

 eigenvalue-minimisations  :  1540
 total energy-change (2. order) :-0.3692321E-06  (-0.1262835E-06)
 number of electron      32.0000000 magnetization 
 augmentation part        0.0930748 magnetization 

 Broyden mixing:
  rms(total) = 0.30155E-03    rms(broyden)= 0.30155E-03
  rms(prec ) = 0.37591E-03
  weight for this iteration     100.00

 eigenvalues of (default mixing * dielectric matrix)
  average eigenvalue GAMMA=   1.7572
  3.0415  3.0415  2.5709  1.8915  1.2007  1.2007  1.0237  1.0237  0.8206

 Free energy of the ion-electron system (eV)
  ---------------------------------------------------
  alpha Z        PSCENC =        88.25421461
  Ewald energy   TEWEN  =     -1567.71660157
  -Hartree energ DENC   =      -528.59906035
  -exchange      EXHF   =         0.00000000
  -V(xc)+E(xc)   XCENC  =        35.31463439
  PAW double counting   =      1903.06984271    -1833.56841332
  entropy T*S    EENTRO =        -0.00000000
  eigenvalues    EBANDS =      -361.06263660
  atomic energy  EATOM  =      2255.64356714
  Solvation  Ediel_sol  =         0.00000000
  ---------------------------------------------------
  free energy    TOTEN  =        -8.66445298 eV

  energy without entropy =       -8.66445298  energy(sigma->0) =       -8.66445298


--------------------------------------------------------------------------------------------------------




--------------------------------------- Iteration      1(  15)  ---------------------------------------


    POTLOK:  cpu time    0.0817: real time    0.0822
    SETDIJ:  cpu time    0.0055: real time    0.0055
     EDDAV:  cpu time    0.3501: real time    0.3502
       DOS:  cpu time    0.0003: real time    0.0003
    CHARGE:  cpu time    0.0495: real time    0.0495
    MIXING:  cpu time    0.0045: real time    0.0045
    --------------------------------------------
      LOOP:  cpu time    0.4916: real time    0.4922

 eigenvalue-minimisations  :  1176
 total energy-change (2. order) : 0.5440643E-07  (-0.2625535E-07)
 number of electron      32.0000000 magnetization 
 augmentation part        0.0930742 magnetization 

 Broyden mixing:
  rms(total) = 0.34111E-04    rms(broyden)= 0.34111E-04
  rms(prec ) = 0.48732E-04
  weight for this iteration     100.00

 eigenvalues of (default mixing * dielectric matrix)
  average eigenvalue GAMMA=   1.7310
  3.2777  2.6885  2.6885  1.7725  1.7725  1.1733  1.1733  0.9858  0.9487  0.8290

 Free energy of the ion-electron system (eV)
  ---------------------------------------------------
  alpha Z        PSCENC =        88.25421461
  Ewald energy   TEWEN  =     -1567.71660157
  -Hartree energ DENC   =      -528.60115303
  -exchange      EXHF   =         0.00000000
  -V(xc)+E(xc)   XCENC  =        35.31462552
  PAW double counting   =      1903.31599598    -1833.81512223
  entropy T*S    EENTRO =        -0.00000000
  eigenvalues    EBANDS =      -361.05997936
  atomic energy  EATOM  =      2255.64356714
  Solvation  Ediel_sol  =         0.00000000
  ---------------------------------------------------
  free energy    TOTEN  =        -8.66445293 eV

  energy without entropy =       -8.66445293  energy(sigma->0) =       -8.66445293


--------------------------------------------------------------------------------------------------------




--------------------------------------- Iteration      1(  16)  ---------------------------------------


    POTLOK:  cpu time    0.0810: real time    0.0815
    SETDIJ:  cpu time    0.0063: real time    0.0063
     EDDAV:  cpu time    0.3553: real time    0.3553
       DOS:  cpu time    0.0003: real time    0.0003
    CHARGE:  cpu time    0.0489: real time    0.0489
    MIXING:  cpu time    0.0048: real time    0.0048
    --------------------------------------------
      LOOP:  cpu time    0.4966: real time    0.4970

 eigenvalue-minimisations  :  1184
 total energy-change (2. order) :-0.4442109E-07  (-0.2349632E-08)
 number of electron      32.0000000 magnetization 
 augmentation part        0.0930724 magnetization 

 Broyden mixing:
  rms(total) = 0.42488E-04    rms(broyden)= 0.42488E-04
  rms(prec ) = 0.45358E-04
  weight for this iteration     100.00

 eigenvalues of (default mixing * dielectric matrix)
  average eigenvalue GAMMA=   1.6976
  3.2738  2.6757  2.3344  2.3344  1.9516  1.1802  1.1802  1.0226  1.0226  0.8419
  0.8556

 Free energy of the ion-electron system (eV)
  ---------------------------------------------------
  alpha Z        PSCENC =        88.25421461
  Ewald energy   TEWEN  =     -1567.71660157
  -Hartree energ DENC   =      -528.60199804
  -exchange      EXHF   =         0.00000000
  -V(xc)+E(xc)   XCENC  =        35.31469987
  PAW double counting   =      1903.35592653    -1833.85466028
  entropy T*S    EENTRO =        -0.00000000
  eigenvalues    EBANDS =      -361.05960123
  atomic energy  EATOM  =      2255.64356714
  Solvation  Ediel_sol  =         0.00000000
  ---------------------------------------------------
  free energy    TOTEN  =        -8.66445297 eV

  energy without entropy =       -8.66445297  energy(sigma->0) =       -8.66445297


--------------------------------------------------------------------------------------------------------




--------------------------------------- Iteration      1(  17)  ---------------------------------------


    POTLOK:  cpu time    0.0801: real time    0.0807
    SETDIJ:  cpu time    0.0070: real time    0.0070
     EDDAV:  cpu time    0.2959: real time    0.2960
       DOS:  cpu time    0.0002: real time    0.0002
    --------------------------------------------
      LOOP:  cpu time    0.3832: real time    0.3839

 eigenvalue-minimisations  :   912
 total energy-change (2. order) :-0.6754362E-08  (-0.2145798E-09)
 number of electron      32.0000000 magnetization 
 augmentation part        0.0930724 magnetization 

 Free energy of the ion-electron system (eV)
  ---------------------------------------------------
  alpha Z        PSCENC =        88.25421461
  Ewald energy   TEWEN  =     -1567.71660157
  -Hartree energ DENC   =      -528.60223538
  -exchange      EXHF   =         0.00000000
  -V(xc)+E(xc)   XCENC  =        35.31471631
  PAW double counting   =      1903.33416293    -1833.83280901
  entropy T*S    EENTRO =        -0.00000000
  eigenvalues    EBANDS =      -361.05946801
  atomic energy  EATOM  =      2255.64356714
  Solvation  Ediel_sol  =         0.00000000
  ---------------------------------------------------
  free energy    TOTEN  =        -8.66445298 eV

  energy without entropy =       -8.66445298  energy(sigma->0) =       -8.66445298


--------------------------------------------------------------------------------------------------------




 average (electrostatic) potential at core
  the test charge radii are     1.1312  1.1045  1.1712
  (the norm of the test charge is              1.0000)
       1 -50.8155       2 -36.4155       3 -36.4155       4 -89.0321
 
 
 
 E-fermi :   2.0554     XC(G=0):  -7.6883     alpha+bet : -7.5888


 k-point     1 :       0.0000    0.0000    0.0000
  band No.  band energies     occupation 
      1     -29.1481      2.00000
      2     -29.1370      2.00000
      3     -21.0868      2.00000
      4     -12.6874      2.00000
      5     -12.6874      2.00000
      6     -12.6874      2.00000
      7     -12.6315      2.00000
      8     -12.6315      2.00000
      9     -12.6315      2.00000
     10      -7.9371      2.00000
     11      -7.9371      2.00000
     12      -7.9371      2.00000
     13      -5.4217      2.00000
     14       1.7910      2.00000
     15       1.7910      2.00000
     16       1.7910      2.00000
     17       2.6388      0.00000
     18       3.9793      0.00000
     19       3.9793      0.00000
     20       4.4815      0.00000

 k-point     2 :       0.1250    0.0000    0.0000
  band No.  band energies     occupation 
      1     -29.1477      2.00000
      2     -29.1374      2.00000
      3     -21.0869      2.00000
      4     -12.6873      2.00000
      5     -12.6857      2.00000
      6     -12.6857      2.00000
      7     -12.6339      2.00000
      8     -12.6339      2.00000
      9     -12.6322      2.00000
     10      -7.9470      2.00000
     11      -7.9359      2.00000
     12      -7.9359      2.00000
     13      -5.3903      2.00000
     14       1.4236      2.00000
     15       1.7216      2.00000
     16       1.7217      2.00000
     17       3.1466      0.00000
     18       4.1799      0.00000
     19       4.1799      0.00000
     20       4.4111      0.00000

 k-point     3 :       0.2500    0.0000    0.0000
  band No.  band energies     occupation 
      1     -29.1464      2.00000
      2     -29.1385      2.00000
      3     -21.0874      2.00000
      4     -12.6848      2.00000
      5     -12.6806      2.00000
      6     -12.6806      2.00000
      7     -12.6407      2.00000
      8     -12.6407      2.00000
      9     -12.6366      2.00000
     10      -7.9681      2.00000
     11      -7.9329      2.00000
     12      -7.9329      2.00000
     13      -5.3190      2.00000
     14       0.9833      2.00000
     15       1.5840      2.00000
     16       1.5840      2.00000
     17       3.8178      0.00000
     18       4.5312      0.00000
     19       4.6746      0.00000
     20       4.6788      0.00000

 k-point     4 :       0.3750    0.0000    0.0000
  band No.  band energies     occupation 
      1     -29.1445      2.00000
      2     -29.1403      2.00000
      3     -21.0878      2.00000
      4     -12.6773      2.00000
      5     -12.6726      2.00000
      6     -12.6726      2.00000
      7     -12.6503      2.00000
      8     -12.6503      2.00000
      9     -12.6461      2.00000
     10      -7.9857      2.00000
     11      -7.9300      2.00000
     12      -7.9299      2.00000
     13      -5.2537      2.00000
     14       0.7006      2.00000
     15       1.4737      2.00000
     16       1.4737      2.00000
     17       4.1648      0.00000
     18       4.8768      0.00000
     19       4.8768      0.00000
     20       5.1555      0.00000

 k-point     5 :       0.5000    0.0000    0.0000
  band No.  band energies     occupation 
      1     -29.1424      2.00000
      2     -29.1424      2.00000
      3     -21.0879      2.00000
      4     -12.6701      2.00000
      5     -12.6651      2.00000
      6     -12.6651      2.00000
      7     -12.6586      2.00000
      8     -12.6586      2.00000
      9     -12.6542      2.00000
     10      -7.9921      2.00000
     11      -7.9287      2.00000
     12      -7.9287      2.00000
     13      -5.2283      2.00000
     14       0.6026      2.00000
     15       1.4336      2.00000
     16       1.4337      2.00000
     17       4.4553      0.00000
     18       4.9967      0.00000
     19       4.9967      0.00000
     20       5.1128      0.00000

 k-point     6 :       0.0000    0.1250    0.0000
  band No.  band energies     occupation 
      1     -29.1475      2.00000
      2     -29.1375      2.00000
      3     -21.0870      2.00000
      4     -12.6909      2.00000
      5     -12.6909      2.00000
      6     -12.6763      2.00000
      7     -12.6424      2.00000
      8     -12.6295      2.00000
      9     -12.6295      2.00000
     10      -7.9499      2.00000
     11      -7.9354      2.00000
     12      -7.9354      2.00000
     13      -5.3821      2.00000
     14       1.2847      2.00000
     15       1.7753      2.00000
     16       1.7753      2.00000
     17       3.1581      0.00000
     18       4.0878      0.00000
     19       4.2258      0.00000
     20       4.4356      0.00000

 k-point     7 :       0.1250    0.1250    0.0000
  band No.  band energies     occupation 
      1     -29.1466      2.00000
      2     -29.1383      2.00000
      3     -21.0873      2.00000
      4     -12.6924      2.00000
      5     -12.6919      2.00000
      6     -12.6652      2.00000
      7     -12.6540      2.00000
      8     -12.6301      2.00000
      9     -12.6296      2.00000
     10      -7.9648      2.00000
     11      -7.9340      2.00000
     12      -7.9330      2.00000
     13      -5.3305      2.00000
     14       0.9965      2.00000
     15       1.6438      2.00000
     16       1.7017      2.00000
     17       3.6556      0.00000
     18       4.0964      0.00000
     19       4.3773      0.00000
     20       4.7720      0.00000

 k-point     8 :       0.2500    0.1250    0.0000
  band No.  band energies     occupation 
      1     -29.1450      2.00000
      2     -29.1398      2.00000
      3     -21.0877      2.00000
      4     -12.6892      2.00000
      5     -12.6882      2.00000
      6     -12.6672      2.00000
      7     -12.6530      2.00000
      8     -12.6355      2.00000
      9     -12.6355      2.00000
     10      -7.9791      2.00000
     11      -7.9335      2.00000
     12      -7.9300      2.00000
     13      -5.2713      2.00000
     14       0.7940      2.00000
     15       1.4647      2.00000
     16       1.5744      2.00000
     17       3.9758      0.00000
     18       4.5355      0.00000
     19       4.8748      0.00000
     20       5.0292      0.00000

 k-point     9 :       0.3750    0.1250    0.0000
  band No.  band energies     occupation 
      1     -29.1431      2.00000
      2     -29.1417      2.00000
      3     -21.0880      2.00000
      4     -12.6861      2.00000
      5     -12.6800      2.00000
      6     -12.6735      2.00000
      7     -12.6465      2.00000
      8     -12.6444      2.00000
      9     -12.6413      2.00000
     10      -7.9856      2.00000
     11      -7.9339      2.00000
     12      -7.9283      2.00000
     13      -5.2373      2.00000
     14       0.6951      2.00000
     15       1.3889      2.00000
     16       1.4736      2.00000
     17       4.2978      0.00000
     18       4.9388      0.00000
     19       5.0028      0.00000
     20       5.0606      0.00000

 k-point    10 :       0.5000    0.1250    0.0000
  band No.  band energies     occupation 
      1     -29.1437      2.00000
      2     -29.1411      2.00000
      3     -21.0879      2.00000
      4     -12.6927      2.00000
      5     -12.6685      2.00000
      6     -12.6659      2.00000
      7     -12.6571      2.00000
      8     -12.6552      2.00000
      9     -12.6319      2.00000
     10      -7.9836      2.00000
     11      -7.9345      2.00000
     12      -7.9287      2.00000
     13      -5.2432      2.00000
     14       0.7144      2.00000
     15       1.4376      2.00000
     16       1.4399      2.00000
     17       4.3054      0.00000
     18       4.8095      0.00000
     19       4.8466      0.00000
     20       5.1215      0.00000

 k-point    11 :      -0.3750    0.1250    0.0000
  band No.  band energies     occupation 
      1     -29.1455      2.00000
      2     -29.1393      2.00000
      3     -21.0876      2.00000
      4     -12.6961      2.00000
      5     -12.6735      2.00000
      6     -12.6670      2.00000
      7     -12.6549      2.00000
      8     -12.6486      2.00000
      9     -12.6269      2.00000
     10      -7.9738      2.00000
     11      -7.9350      2.00000
     12      -7.9312      2.00000
     13      -5.2870      2.00000
     14       0.8585      2.00000
     15       1.4792      2.00000
     16       1.5884      2.00000
     17       3.9901      0.00000
     18       4.4473      0.00000
     19       4.6513      0.00000
     20       4.8703      0.00000

 k-point    12 :      -0.2500    0.1250    0.0000
  band No.  band energies     occupation 
      1     -29.1470      2.00000
      2     -29.1380      2.00000
      3     -21.0872      2.00000
      4     -12.6936      2.00000
      5     -12.6815      2.00000
      6     -12.6774      2.00000
      7     -12.6429      2.00000
      8     -12.6389      2.00000
      9     -12.6276      2.00000
     10      -7.9587      2.00000
     11      -7.9352      2.00000
     12      -7.9341      2.00000
[...]
 k-point    15 :       0.2500    0.2500    0.0000
  band No.  band energies     occupation 
      1     -29.1436      2.00000
      2     -29.1410      2.00000
      3     -21.0881      2.00000
      4     -12.7027      2.00000
      5     -12.6956      2.00000
      6     -12.6856      2.00000
      7     -12.6335      2.00000
      8     -12.6305      2.00000
      9     -12.6247      2.00000
     10      -7.9771      2.00000
     11      -7.9396      2.00000
     12      -7.9272      2.00000
     13      -5.2574      2.00000
     14       0.8896      2.00000
     15       1.3650      2.00000
     16       1.5715      2.00000
     17       3.8525      0.00000
     18       4.5976      0.00000
     19       5.0635      0.00000
     20       5.0772      0.00000

 k-point    16 :       0.3750    0.2500    0.0000
  band No.  band energies     occupation 
      1     -29.1426      2.00000
      2     -29.1420      2.00000
      3     -21.0882      2.00000
      4     -12.7065      2.00000
      5     -12.6851      2.00000
      6     -12.6757      2.00000
      7     -12.6467      2.00000
      8     -12.6403      2.00000
      9     -12.6189      2.00000
     10      -7.9699      2.00000
     11      -7.9482      2.00000
     12      -7.9271      2.00000
     13      -5.2476      2.00000
     14       0.9020      2.00000
     15       1.2919      2.00000
     16       1.4788      2.00000
     17       4.2755      0.00000
     18       4.5389      0.00000
     19       4.9294      0.00000
     20       5.0829      0.00000

 k-point    17 :       0.5000    0.2500    0.0000
  band No.  band energies     occupation 
      1     -29.1442      2.00000
      2     -29.1405      2.00000
      3     -21.0879      2.00000
      4     -12.7047      2.00000
      5     -12.6707      2.00000
      6     -12.6618      2.00000
      7     -12.6612      2.00000
      8     -12.6529      2.00000
      9     -12.6195      2.00000
     10      -7.9721      2.00000
     11      -7.9435      2.00000
     12      -7.9288      2.00000
     13      -5.2580      2.00000
     14       0.8391      2.00000
     15       1.4416      2.00000
     16       1.4417      2.00000
     17       4.3040      0.00000
     18       4.5312      0.00000
     19       4.7420      0.00000
     20       4.7745      0.00000

 k-point    18 :       0.0000    0.3750    0.0000
  band No.  band energies     occupation 
      1     -29.1447      2.00000
      2     -29.1400      2.00000
      3     -21.0881      2.00000
      4     -12.7070      2.00000
      5     -12.7070      2.00000
      6     -12.6950      2.00000
      7     -12.6219      2.00000
      8     -12.6202      2.00000
      9     -12.6202      2.00000
     10      -7.9853      2.00000
     11      -7.9273      2.00000
     12      -7.9273      2.00000
     13      -5.2837      2.00000
     14       0.8815      2.00000
     15       1.7203      2.00000
     16       1.7203      2.00000
     17       3.3105      0.00000
     18       4.0001      0.00000
     19       4.9381      0.00000
     20       5.2125      0.00000

 k-point    19 :       0.1250    0.3750    0.0000
  band No.  band energies     occupation 
      1     -29.1440      2.00000
      2     -29.1406      2.00000
      3     -21.0883      2.00000
      4     -12.7107      2.00000
      5     -12.7064      2.00000
      6     -12.6980      2.00000
      7     -12.6226      2.00000
      8     -12.6215      2.00000
      9     -12.6141      2.00000
     10      -7.9829      2.00000
     11      -7.9313      2.00000
     12      -7.9261      2.00000
     13      -5.2757      2.00000
     14       0.9793      2.00000
     15       1.5530      2.00000
     16       1.6710      2.00000
     17       3.3889      0.00000
     18       4.0750      0.00000
     19       5.1795      0.00000
     20       5.2624      0.00000

 k-point    20 :       0.2500    0.3750    0.0000
  band No.  band energies     occupation 
      1     -29.1431      2.00000
      2     -29.1416      2.00000
      3     -21.0883      2.00000
      4     -12.7127      2.00000
      5     -12.6986      2.00000
      6     -12.6888      2.00000
      7     -12.6326      2.00000
      8     -12.6285      2.00000
      9     -12.6129      2.00000
     10      -7.9706      2.00000
     11      -7.9456      2.00000
     12      -7.9260      2.00000
     13      -5.2617      2.00000
     14       1.1115      2.00000
     15       1.2258      2.00000
     16       1.5722      2.00000
     17       3.7692      0.00000
     18       4.3285      0.00000
     19       5.1318      0.00000
     20       5.3179      0.00000

 k-point    21 :       0.0000    0.5000    0.0000
  band No.  band energies     occupation 
      1     -29.1441      2.00000
      2     -29.1405      2.00000
      3     -21.0883      2.00000
      4     -12.7102      2.00000
      5     -12.7102      2.00000
      6     -12.7059      2.00000
      7     -12.6184      2.00000
      8     -12.6184      2.00000
      9     -12.6105      2.00000
     10      -7.9877      2.00000
     11      -7.9256      2.00000
     12      -7.9256      2.00000
     13      -5.2829      2.00000
     14       0.9913      2.00000
     15       1.7125      2.00000
     16       1.7125      2.00000
     17       3.1587      0.00000
     18       3.8752      0.00000
     19       5.1810      0.00000
     20       5.5176      0.00000

 k-point    22 :       0.1250    0.1250    0.1250
  band No.  band energies     occupation 
      1     -29.1456      2.00000
      2     -29.1393      2.00000
      3     -21.0877      2.00000
      4     -12.7006      2.00000
      5     -12.6870      2.00000
      6     -12.6681      2.00000
      7     -12.6513      2.00000
      8     -12.6370      2.00000
      9     -12.6232      2.00000
     10      -7.9735      2.00000
     11      -7.9348      2.00000
     12      -7.9309      2.00000
     13      -5.2913      2.00000
     14       0.8623      2.00000
     15       1.5521      2.00000
     16       1.6383      2.00000
     17       3.9784      0.00000
     18       3.9914      0.00000
     19       4.7110      0.00000
     20       4.8838      0.00000

 k-point    23 :       0.2500    0.1250    0.1250
  band No.  band energies     occupation 
      1     -29.1441      2.00000
      2     -29.1407      2.00000
      3     -21.0880      2.00000
      4     -12.7037      2.00000
      5     -12.6815      2.00000
      6     -12.6765      2.00000
      7     -12.6485      2.00000
      8     -12.6385      2.00000
      9     -12.6226      2.00000
     10      -7.9761      2.00000
     11      -7.9394      2.00000
     12      -7.9288      2.00000
     13      -5.2573      2.00000
     14       0.8323      2.00000
     15       1.4191      2.00000
     16       1.5079      2.00000
     17       4.0913      0.00000
     18       4.5006      0.00000
     19       4.8561      0.00000
     20       5.1184      0.00000

 k-point    24 :       0.3750    0.1250    0.1250
  band No.  band energies     occupation 
      1     -29.1424      2.00000
      2     -29.1423      2.00000
      3     -21.0881      2.00000
      4     -12.7033      2.00000
      5     -12.6872      2.00000
      6     -12.6658      2.00000
      7     -12.6603      2.00000
      8     -12.6290      2.00000
      9     -12.6275      2.00000
     10      -7.9755      2.00000
     11      -7.9425      2.00000
     12      -7.9279      2.00000
     13      -5.2447      2.00000
     14       0.8423      2.00000
     15       1.3324      2.00000
     16       1.4705      2.00000
     17       4.3857      0.00000
     18       4.4599      0.00000
     19       4.9944      0.00000
     20       5.1965      0.00000

 k-point    25 :       0.1250    0.2500    0.1250
  band No.  band energies     occupation 
      1     -29.1442      2.00000
      2     -29.1405      2.00000
      3     -21.0881      2.00000
      4     -12.7105      2.00000
      5     -12.6941      2.00000
      6     -12.6918      2.00000
      7     -12.6335      2.00000
      8     -12.6234      2.00000
      9     -12.6189      2.00000
     10      -7.9789      2.00000
     11      -7.9345      2.00000
     12      -7.9283      2.00000
     13      -5.2701      2.00000
     14       0.9125      2.00000
     15       1.5536      2.00000
     16       1.5558      2.00000
     17       3.6670      0.00000
     18       4.2259      0.00000
     19       5.0215      0.00000
     20       5.2011      0.00000

 k-point    26 :       0.2500    0.2500    0.1250
  band No.  band energies     occupation 
      1     -29.1430      2.00000
      2     -29.1416      2.00000
      3     -21.0883      2.00000
      4     -12.7153      2.00000
      5     -12.6947      2.00000
      6     -12.6810      2.00000
      7     -12.6469      2.00000
      8     -12.6198      2.00000
      9     -12.6163      2.00000
     10      -7.9687      2.00000
     11      -7.9459      2.00000
     12      -7.9281      2.00000
     13      -5.2595      2.00000
     14       1.0528      2.00000
     15       1.3026      2.00000
     16       1.4984      2.00000
     17       3.9666      0.00000
     18       4.3440      0.00000
     19       4.8562      0.00000
     20       5.2328      0.00000

 k-point    27 :       0.3750    0.2500    0.1250
  band No.  band energies     occupation 
      1     -29.1429      2.00000
      2     -29.1418      2.00000
      3     -21.0882      2.00000
      4     -12.7132      2.00000
      5     -12.6904      2.00000
      6     -12.6646      2.00000
      7     -12.6627      2.00000
      8     -12.6268      2.00000
      9     -12.6159      2.00000
     10      -7.9634      2.00000
     11      -7.9524      2.00000
     12      -7.9281      2.00000
     13      -5.2539      2.00000
     14       1.0001      2.00000
     15       1.2897      2.00000
     16       1.4605      2.00000
     17       4.2953      0.00000
     18       4.4539      0.00000
     19       4.5751      0.00000
     20       5.3475      0.00000

 k-point    28 :       0.1250    0.3750    0.1250
  band No.  band energies     occupation 
      1     -29.1436      2.00000
      2     -29.1410      2.00000
      3     -21.0883      2.00000
      4     -12.7171      2.00000
      5     -12.6990      2.00000
      6     -12.6970      2.00000
      7     -12.6321      2.00000
      8     -12.6173      2.00000
      9     -12.6116      2.00000
     10      -7.9783      2.00000
     11      -7.9345      2.00000
     12      -7.9277      2.00000
     13      -5.2719      2.00000
     14       1.0514      2.00000
     15       1.5198      2.00000
     16       1.5353      2.00000
     17       3.5520      0.00000
     18       4.0648      0.00000
     19       5.2059      0.00000
     20       5.2216      0.00000

 k-point    29 :       0.2500    0.2500    0.2500
  band No.  band energies     occupation 
      1     -29.1423      2.00000
      2     -29.1423      2.00000
      3     -21.0883      2.00000
      4     -12.7207      2.00000
      5     -12.6955      2.00000
      6     -12.6648      2.00000
      7     -12.6648      2.00000
      8     -12.6149      2.00000
      9     -12.6140      2.00000
     10      -7.9561      2.00000
     11      -7.9561      2.00000
     12      -7.9297      2.00000
     13      -5.2608      2.00000
     14       1.2347      2.00000
     15       1.2347      2.00000
     16       1.3863      2.00000
     17       4.1970      0.00000
     18       4.3859      0.00000
     19       4.3859      0.00000
     20       5.2398      0.00000


--------------------------------------------------------------------------------------------------------


 soft charge-density along one line, spin component           1
         0         1         2         3         4         5         6         7         8         9
 total charge-density along one line
 
 pseudopotential strength for first ion, spin component:           1
 18.605  -4.879   0.000  -0.000   0.000  -0.000   0.000  -0.000
 -4.879   1.285  -0.000   0.000  -0.000   0.000  -0.000   0.000
  0.000  -0.000   2.409  -0.000   0.000  -2.960   0.000  -0.000
 -0.000   0.000  -0.000   2.409   0.000   0.000  -2.960  -0.000
  0.000  -0.000   0.000   0.000   2.409  -0.000  -0.000  -2.960
 -0.000   0.000  -2.960   0.000  -0.000   3.606  -0.000   0.000
  0.000  -0.000   0.000  -2.960  -0.000  -0.000   3.606   0.000
 -0.000   0.000  -0.000  -0.000  -2.960   0.000   0.000   3.606
  0.000  -0.000   0.000  -0.000   0.000  -0.000   0.000  -0.000
 -0.000   0.000  -0.000   0.000  -0.000   0.000  -0.000   0.000
  0.000  -0.000  -0.000  -0.000  -0.000   0.000   0.000   0.000
  0.000  -0.000  -0.000   0.000  -0.000   0.000  -0.000   0.000
 -0.000   0.000  -0.000  -0.000   0.000   0.000   0.000  -0.000
 total augmentation occupancy for first ion, spin component:           1
  1.989  -0.029   0.000   0.000   0.000   0.000   0.000   0.000   0.000  -0.000   0.000  -0.000   0.000
 -0.029   0.491   0.000   0.000   0.000   0.000   0.000   0.000  -0.000   0.000  -0.000   0.000  -0.000
  0.000   0.000   2.011   0.000   0.000   0.013   0.000   0.000   0.000   0.000   0.000   0.000   0.000
  0.000   0.000   0.000   2.011  -0.000   0.000   0.013   0.000   0.000   0.000   0.000   0.000   0.000
  0.000   0.000   0.000   0.000   2.011   0.000  -0.000   0.013   0.000   0.000   0.000   0.000   0.000
  0.000   0.000   0.013   0.000   0.000   0.016   0.000   0.000   0.000   0.000   0.000   0.000   0.000
  0.000   0.000   0.000   0.013  -0.000   0.000   0.016   0.000   0.000   0.000   0.000   0.000   0.000
  0.000   0.000  -0.000  -0.000   0.013   0.000   0.000   0.016   0.000   0.000   0.000   0.000   0.000
  0.000  -0.000   0.000   0.000   0.000   0.000   0.000   0.000   0.005   0.000   0.000  -0.000   0.000
 -0.000   0.000   0.000   0.000   0.000   0.000   0.000   0.000   0.000   0.005   0.000   0.000   0.000
  0.000  -0.000   0.000   0.000   0.000   0.000   0.000   0.000   0.000   0.000   0.025  -0.000   0.000
 -0.000   0.000   0.000   0.000   0.000   0.000   0.000   0.000  -0.000   0.000   0.000   0.005  -0.000
 -0.000  -0.000   0.000   0.000   0.000   0.000   0.000   0.000   0.000   0.000   0.000  -0.000   0.025


------------------------ aborting loop because EDIFF is reached ----------------------------------------


    CHARGE:  cpu time    0.0482: real time    0.0482
    FORLOC:  cpu time    0.0081: real time    0.0081
    FORNL :  cpu time    0.0649: real time    0.0650
    STRESS:  cpu time    0.2461: real time    0.2462
    FORCOR:  cpu time    0.0898: real time    0.0898
    FORHAR:  cpu time    0.0235: real time    0.0235
    MIXING:  cpu time    0.0083: real time    0.0083
    OFIELD:  cpu time    0.0001: real time    0.0001

  FORCE on cell =-STRESS in cart. coord.  units (eV):
  Direction    XX          YY          ZZ          XY          YZ          ZX
  --------------------------------------------------------------------------------------
  Alpha Z    88.25421    88.25421    88.25421
  Ewald    -522.57265  -522.57265  -522.57265    -0.00000    -0.00000     0.00041
  Hartree   176.20066   176.20066   176.20066    -0.00000     0.00000     0.00004
  E(xc)    -128.25522  -128.25522  -128.25522     0.00000     0.00000     0.00000
  Local      23.79572    23.79572    23.79572    -0.00000    -0.00000    -0.00032
  n-local   -21.24725   -21.22834   -22.34671     0.91508    -0.47885     0.72563
  augment   -13.48649   -13.48649   -13.48649    -0.00000     0.00000     0.00000
  Kinetic   398.11555   398.60365   396.29598     2.14129    -1.26945     1.82126
  Fock        0.00000     0.00000     0.00000     0.00000     0.00000     0.00000
  -------------------------------------------------------------------------------------
  Total       0.00053     0.00053     0.00053    -0.00000    -0.00000    -0.00000
  in kB       0.00506     0.00506     0.00506    -0.00000    -0.00000    -0.00000
  external pressure =        0.01 kB  Pullay stress =        0.00 kB


 VOLUME and BASIS-vectors are now :
 -----------------------------------------------------------------------------
  energy-cutoff  :      520.00
  volume of cell :      168.09
      direct lattice vectors                 reciprocal lattice vectors
     4.380263552 -4.380263552  0.000000000     0.114148383 -0.114148383 -0.114148383
    -4.380263552  0.000000000 -4.380263552     0.000000000  0.000000000 -0.228296765
     4.380263552  4.380263552  0.000000000     0.114148383  0.114148383 -0.114148383

  length of vectors
     6.194628123  6.194628123  6.194628123     0.197710798  0.228296765  0.197710798


 FORCES acting on ions
    electron-ion (+dipol)            ewald-force                    non-local-force                 convergence-correction
 -----------------------------------------------------------------------------------------------
   -.225E-02 -.714E-13 -.279E-04   -.472E-03 0.753E-14 0.175E-03   0.000E+00 -.847E-21 0.000E+00   0.491E-06 0.138E-13 -.603E-07
   0.222E-02 -.217E-02 -.219E-02   0.252E-03 -.310E-03 -.136E-03   -.651E-17 -.130E-17 0.867E-17   -.137E-06 0.541E-06 0.653E-07
   0.222E-02 0.217E-02 -.219E-02   0.252E-03 0.310E-03 -.136E-03   -.121E-16 -.520E-17 -.121E-16   -.137E-06 -.541E-06 0.653E-07
   0.300E-04 0.485E-13 -.155E-04   -.323E-04 -.142E-13 0.970E-04   -.212E-21 0.212E-21 0.000E+00   -.133E-06 0.384E-14 -.249E-07
 -----------------------------------------------------------------------------------------------
   0.222E-02 0.400E-12 -.443E-02   -.161E-15 -.111E-15 0.643E-15   -.186E-16 -.651E-17 -.347E-17   0.848E-07 0.169E-13 0.453E-07
 
 
 POSITION                                       TOTAL-FORCE (eV/Angst)
 -----------------------------------------------------------------------------------
      4.38027      0.00000      0.00000         0.000000     -0.000000      0.000000
      2.19013     -2.19013     -2.19013        -0.000000      0.000000     -0.000000
      2.19013      2.19013     -2.19013        -0.000000     -0.000000      0.000000
      0.00000      0.00000      0.00000         0.000000     -0.000000      0.000000
 -----------------------------------------------------------------------------------
    total drift:                                0.002225      0.000000     -0.004432


--------------------------------------------------------------------------------------------------------



  FREE ENERGIE OF THE ION-ELECTRON SYSTEM (eV)
  ---------------------------------------------------
  free  energy   TOTEN  =        -8.66445298 eV

  energy  without entropy=       -8.66445298  energy(sigma->0) =       -8.66445298
 


--------------------------------------------------------------------------------------------------------


    POTLOK:  cpu time    0.0881: real time    0.0882


--------------------------------------------------------------------------------------------------------


     LOOP+:  cpu time    9.4524: real time    9.4756
    4ORBIT:  cpu time    0.0000: real time    0.0000

 total amount of memory used by VASP MPI-rank0    56208. kBytes
=======================================================================

   base      :      30000. kBytes
   nonl-proj :       6032. kBytes
   fftplans  :       4867. kBytes
   grid      :       9037. kBytes
   one-center:          8. kBytes
   wavefun   :       6264. kBytes
 
  
  
 General timing and accounting informations for this job:
 ========================================================
  
                  Total CPU time used (sec):       10.202
                            User time (sec):        9.907
                          System time (sec):        0.295
                         Elapsed time (sec):       10.313
  
                   Maximum memory used (kb):      107028.
                   Average memory used (kb):           0.
  
                          Minor page faults:        34788
                          Major page faults:            0
                 Voluntary context switches:          454
