<?xml version="1.0" encoding="ISO-8859-1"?>
<modeling>
 <generator>
  <i name="program" type="string">vasp </i>
  <i name="version" type="string">5.4.4.18Apr17-6-g9f103f2a35  </i>
  <i name="subversion" type="string">(build Jun 23 2019 17:35:09) complex            parallel </i>
  <i name="platform" type="string">LinuxIFC </i>
  <i name="date" type="string">2020 01 15 </i>
  <i name="time" type="string">15:39:58 </i>
 </generator>
 <incar>
  <i type="int" name="ISTART">     0</i>
  <i type="string" name="PREC">acc</i>
  <i type="string" name="ALGO"> Normal</i>
  <i type="int" name="ISPIN">     1</i>
  <i type="int" name="NELM">   150</i>
  <i type="int" name="NELMIN">     5</i>
  <i type="int" name="IBRION">    -1</i>
  <i name="EDIFF">      0.00000001</i>
  <i type="int" name="NSW">     0</i>
  <i type="int" name="ISIF">     3</i>
  <i name="ENCUT">    520.00000000</i>
  <i type="logical" name="LREAL"> F  </i>
  <i type="logical" name="LPLANE"> T  </i>
  <i type="int" name="ISMEAR">     0</i>
  <i name="SIGMA">      0.05000000</i>
  <i type="logical" name="LWAVE"> F  </i>
  <i type="logical" name="LCHARG"> F  </i>
  <v type="int" name="KPOINT_BSE">    -1     0     0     0</v>
  <i type="int" name="NELM">   150</i>
  <i type="string" name="GGA"> PE</i>
 </incar>
 <structure name="primitive_cell" >
  <crystal>
   <varray name="basis" >
    <v>       4.38026355      -4.38026355       0.00000000 </v>
    <v>      -4.38026355       0.00000000      -4.38026355 </v>
    <v>       4.38026355       4.38026355       0.00000000 </v>
   </varray>
   <i name="volume">    168.08568240 </i>
   <varray name="rec_basis" >
    <v>       0.11414838      -0.11414838      -0.11414838 </v>
    <v>       0.00000000       0.00000000      -0.22829677 </v>
    <v>       0.11414838       0.11414838      -0.11414838 </v>
   </varray>
  </crystal>
  <varray name="positions" >
   <v>      -0.49999954       0.00000000      -0.49999954 </v>
   <v>      -0.25000103       0.49999931       0.24999966 </v>
   <v>       0.24999966       0.49999931      -0.25000103 </v>
   <v>       0.00000000       0.00000000       0.00000000 </v>
  </varray>
 </structure>
 <varray name="primitive_index" >
  <v type="int" >        1 </v>
  <v type="int" >        2 </v>
  <v type="int" >        3 </v>
  <v type="int" >        4 </v>
 </varray>
 <kpoints>
  <generation param="Gamma">
   <v type="int" name="divisions">       8        8        8 </v>
   <v name="usershift">      0.00000000       0.00000000       0.00000000 </v>
   <v name="genvec1">      0.12500000       0.00000000       0.00000000 </v>
   <v name="genvec2">      0.00000000       0.12500000       0.00000000 </v>
   <v name="genvec3">      0.00000000       0.00000000       0.12500000 </v>
   <v name="shift">      0.00000000       0.00000000       0.00000000 </v>
  </generation>
  <varray name="kpointlist" >
   <v>       0.00000000       0.00000000       0.00000000 </v>
   <v>       0.12500000       0.00000000       0.00000000 </v>
   <v>       0.25000000       0.00000000       0.00000000 </v>
   <v>       0.37500000       0.00000000       0.00000000 </v>
   <v>       0.50000000       0.00000000       0.00000000 </v>
   <v>       0.00000000       0.12500000       0.00000000 </v>
   <v>       0.12500000       0.12500000       0.00000000 </v>
   <v>       0.25000000       0.12500000       0.00000000 </v>
   <v>       0.37500000       0.12500000       0.00000000 </v>
   <v>       0.50000000       0.12500000       0.00000000 </v>
   <v>      -0.37500000       0.12500000       0.00000000 </v>
   <v>      -0.25000000       0.12500000       0.00000000 </v>
   <v>       0.00000000       0.25000000       0.00000000 </v>
   <v>       0.12500000       0.25000000       0.00000000 </v>
   <v>       0.25000000       0.25000000       0.00000000 </v>
   <v>       0.37500000       0.25000000       0.00000000 </v>
   <v>       0.50000000       0.25000000       0.00000000 </v>
   <v>       0.00000000       0.37500000       0.00000000 </v>
   <v>       0.12500000       0.37500000       0.00000000 </v>
   <v>       0.25000000       0.37500000       0.00000000 </v>
   <v>       0.00000000       0.50000000       0.00000000 </v>
   <v>       0.12500000       0.12500000       0.12500000 </v>
   <v>       0.25000000       0.12500000       0.12500000 </v>
   <v>       0.37500000       0.12500000       0.12500000 </v>
   <v>       0.12500000       0.25000000       0.12500000 </v>
   <v>       0.25000000       0.25000000       0.12500000 </v>
   <v>       0.37500000       0.25000000       0.12500000 </v>
   <v>       0.12500000       0.37500000       0.12500000 </v>
   <v>       0.25000000       0.25000000       0.25000000 </v>
  </varray>
  <varray name="weights" >
   <v>       0.00195312 </v>
   <v>       0.01562500 </v>
   <v>       0.01562500 </v>
   <v>       0.01562500 </v>
   <v>       0.00781250 </v>
   <v>       0.01171875 </v>
   <v>       0.04687500 </v>
   <v>       0.04687500 </v>
   <v>       0.04687500 </v>
   <v>       0.04687500 </v>
   <v>       0.04687500 </v>
   <v>       0.02343750 </v>
   <v>       0.01171875 </v>
   <v>       0.04687500 </v>
   <v>       0.04687500 </v>
   <v>       0.04687500 </v>
   <v>       0.02343750 </v>
   <v>       0.01171875 </v>
   <v>       0.04687500 </v>
   <v>       0.02343750 </v>
   <v>       0.00585938 </v>
   <v>       0.04687500 </v>
   <v>       0.09375000 </v>
   <v>       0.04687500 </v>
   <v>       0.04687500 </v>
   <v>       0.09375000 </v>
   <v>       0.04687500 </v>
   <v>       0.02343750 </v>
   <v>       0.01171875 </v>
  </varray>
 </kpoints>
 <parameters>
  <separator name="general" >
   <i type="string" name="SYSTEM">unknown system</i>
   <i type="logical" name="LCOMPAT"> F  </i>
  </separator>
  <separator name="electronic" >
   <i type="string" name="PREC">acc</i>
   <i name="ENMAX">    520.00000000</i>
   <i name="ENAUG">    427.85300000</i>
   <i name="EDIFF">      0.00000001</i>
   <i type="int" name="IALGO">    38</i>
   <i type="int" name="IWAVPR">    10</i>
   <i type="int" name="NBANDS">    20</i>
   <i name="NELECT">     32.00000000</i>
   <i type="int" name="TURBO">     0</i>
   <i type="int" name="IRESTART">     0</i>
   <i type="int" name="NREBOOT">     0</i>
   <i type="int" name="NMIN">     0</i>
   <i name="EREF">      0.00000000</i>
   <separator name="electronic smearing" >
    <i type="int" name="ISMEAR">     0</i>
    <i name="SIGMA">      0.05000000</i>
    <i name="KSPACING">      0.50000000</i>
    <i type="logical" name="KGAMMA"> T  </i>
   </separator>
   <separator name="electronic projectors" >
    <i type="logical" name="LREAL"> F  </i>
    <v name="ROPT">      0.00000000      0.00000000      0.00000000</v>
    <i type="int" name="LMAXPAW">  -100</i>
    <i type="int" name="LMAXMIX">     2</i>
    <i type="logical" name="NLSPLINE"> F  </i>
   </separator>
   <separator name="electronic startup" >
    <i type="int" name="ISTART">     0</i>
    <i type="int" name="ICHARG">     2</i>
    <i type="int" name="INIWAV">     1</i>
   </separator>
   <separator name="electronic spin" >
    <i type="int" name="ISPIN">     1</i>
    <i type="logical" name="LNONCOLLINEAR"> F  </i>
    <v name="MAGMOM">      1.00000000      1.00000000      1.00000000      1.00000000</v>
    <i name="NUPDOWN">     -1.00000000</i>
    <i type="logical" name="LSORBIT"> F  </i>
    <v name="SAXIS">      0.00000000      0.00000000      1.00000000</v>
    <i type="logical" name="LSPIRAL"> F  </i>
    <v name="QSPIRAL">      0.00000000      0.00000000      0.00000000</v>
    <i type="logical" name="LZEROZ"> F  </i>
   </separator>
   <separator name="electronic exchange-correlation" >
    <i type="logical" name="LASPH"> F  </i>
    <i type="logical" name="LMETAGGA"> F  </i>
   </separator>
   <separator name="electronic convergence" >
    <i type="int" name="NELM">   150</i>
    <i type="int" name="NELMDL">    -5</i>
    <i type="int" name="NELMIN">     5</i>
    <i name="ENINI">    520.00000000</i>
    <separator name="electronic convergence detail" >
     <i type="logical" name="LDIAG"> T  </i>
     <i type="logical" name="LSUBROT"> F  </i>
     <i name="WEIMIN">      0.00000000</i>
     <i name="EBREAK">      0.00000000</i>
     <i name="DEPER">      0.30000000</i>
     <i type="int" name="NRMM">     4</i>
     <i name="TIME">      0.40000000</i>
    </separator>
   </separator>
   <separator name="electronic mixer" >
    <i name="AMIX">      0.40000000</i>
    <i name="BMIX">      1.00000000</i>
    <i name="AMIN">      0.10000000</i>
    <i name="AMIX_MAG">      1.60000000</i>
    <i name="BMIX_MAG">      1.00000000</i>
    <separator name="electronic mixer details" >
     <i type="int" name="IMIX">     4</i>
     <i type="logical" name="MIXFIRST"> F  </i>
     <i type="int" name="MAXMIX">   -45</i>
     <i name="WC">    100.00000000</i>
     <i type="int" name="INIMIX">     1</i>
     <i type="int" name="MIXPRE">     1</i>
     <i type="int" name="MREMOVE">     5</i>
    </separator>
   </separator>
   <separator name="electronic dipolcorrection" >
    <i type="logical" name="LDIPOL"> F  </i>
    <i type="logical" name="LMONO"> F  </i>
    <i type="int" name="IDIPOL">     0</i>
    <i name="EPSILON">      1.00000000</i>
    <v name="DIPOL">   -100.00000000   -100.00000000   -100.00000000</v>
    <i name="EFIELD">      0.00000000</i>
   </separator>
  </separator>
  <separator name="grids" >
   <i type="int" name="NGX">    48</i>
   <i type="int" name="NGY">    48</i>
   <i type="int" name="NGZ">    48</i>
   <i type="int" name="NGXF">    96</i>
   <i type="int" name="NGYF">    96</i>
   <i type="int" name="NGZF">    96</i>
   <i type="logical" name="ADDGRID"> F  </i>
  </separator>
  <separator name="ionic" >
   <i type="int" name="NSW">     0</i>
   <i type="int" name="IBRION">    -1</i>
   <i type="int" name="MDALGO">     0</i>
   <i type="int" name="ISIF">     3</i>
   <i name="PSTRESS">      0.00000000</i>
   <i name="EDIFFG">      0.00000010</i>
   <i type="int" name="NFREE">     0</i>
   <i name="POTIM">      0.50000000</i>
   <i name="SMASS">     -3.00000000</i>
   <i name="SCALEE">      1.00000000</i>
  </separator>
  <separator name="ionic md" >
   <i name="TEBEG">      0.00010000</i>
   <i name="TEEND">      0.00010000</i>
   <i type="int" name="NBLOCK">     1</i>
   <i type="int" name="KBLOCK">     1</i>
   <i type="int" name="NPACO">   256</i>
   <i name="APACO">     16.00000000</i>
  </separator>
  <separator name="symmetry" >
   <i type="int" name="ISYM">     2</i>
   <i name="SYMPREC">      0.00001000</i>
  </separator>
  <separator name="dos" >
   <i type="int" name="LORBIT">     0</i>
   <v name="RWIGS">     -1.00000000     -1.00000000     -1.00000000</v>
   <i type="int" name="NEDOS">   301</i>
   <i name="EMIN">     10.00000000</i>
   <i name="EMAX">    -10.00000000</i>
   <i name="EFERMI">      0.00000000</i>
  </separator>
  <separator name="writing" >
   <i type="int" name="NWRITE">     2</i>
   <i type="logical" name="LWAVE"> F  </i>
   <i type="logical" name="LDOWNSAMPLE"> F  </i>
   <i type="logical" name="LCHARG"> F  </i>
   <i type="logical" name="LPARD"> F  </i>
   <i type="logical" name="LVTOT"> F  </i>
   <i type="logical" name="LVHAR"> F  </i>
   <i type="logical" name="LELF"> F  </i>
   <i type="logical" name="LOPTICS"> F  </i>
   <v name="STM">      0.00000000      0.00000000      0.00000000      0.00000000      0.00000000      0.00000000      0.00000000</v>
  </separator>
  <separator name="performance" >
   <i type="int" name="NPAR">     1</i>
   <i type="int" name="NSIM">     4</i>
   <i type="int" name="NBLK">    -1</i>
   <i type="logical" name="LPLANE"> T  </i>
   <i type="logical" name="LSCALAPACK"> T  </i>
   <i type="logical" name="LSCAAWARE"> F  </i>
   <i type="logical" name="LSCALU"> F  </i>
   <i type="logical" name="LASYNC"> F  </i>
   <i type="logical" name="LORBITALREAL"> F  </i>
  </separator>
  <separator name="miscellaneous" >
   <i type="int" name="IDIOT">     3</i>
   <i type="int" name="ISPECIAL">     0</i>
   <i type="logical" name="LMUSIC"> F  </i>
   <v name="POMASS">    132.90000000     39.09800000    121.75000000</v>
   <v name="DARWINR">      0.00000000      0.00000000      0.00000000</v>
   <v name="DARWINV">      1.00000000      1.00000000      1.00000000</v>
   <i type="logical" name="LCORR"> T  </i>
  </separator>
  <i type="logical" name="GGA_COMPAT"> T  </i>
  <i type="logical" name="LBERRY"> F  </i>
  <i type="int" name="ICORELEVEL">     0</i>
  <i type="logical" name="LDAU"> F  </i>
  <i type="int" name="I_CONSTRAINED_M">     0</i>
  <separator name="electronic exchange-correlation" >
   <i type="string" name="GGA">PE</i>
   <i type="int" name="VOSKOWN">     0</i>
   <i type="logical" name="LHFCALC"> F  </i>
   <i type="string" name="PRECFOCK"></i>
   <i type="logical" name="LSYMGRAD"> F  </i>
   <i type="logical" name="LHFONE"> F  </i>
   <i type="logical" name="LRHFCALC"> F  </i>
   <i type="logical" name="LTHOMAS"> F  </i>
   <i type="logical" name="LMODELHF"> F  </i>
   <i name="ENCUT4O">     -1.00000000</i>
   <i type="int" name="EXXOEP">     0</i>
   <i type="int" name="FOURORBIT">     0</i>
   <i name="AEXX">      0.00000000</i>
   <i name="HFALPHA">      0.00000000</i>
   <i name="MCALPHA">      0.00000000</i>
   <i name="ALDAX">      1.00000000</i>
   <i name="AGGAX">      1.00000000</i>
   <i name="ALDAC">      1.00000000</i>
   <i name="AGGAC">      1.00000000</i>
   <i type="int" name="NKREDX">     1</i>
   <i type="int" name="NKREDY">     1</i>
   <i type="int" name="NKREDZ">     1</i>
   <i type="logical" name="SHIFTRED"> F  </i>
   <i type="logical" name="ODDONLY"> F  </i>
   <i type="logical" name="EVENONLY"> F  </i>
   <i type="int" name="LMAXFOCK">     0</i>
   <i type="int" name="NMAXFOCKAE">     0</i>
   <i type="logical" name="LFOCKAEDFT"> F  </i>
   <i name="HFSCREEN">      0.00000000</i>
   <i name="HFSCREENC">      0.00000000</i>
   <i type="int" name="NBANDSGWLOW">     0</i>
  </separator>
  <separator name="vdW DFT" >
   <i type="logical" name="LUSE_VDW"> F  </i>
   <i name="Zab_VDW">     -0.84910000</i>
   <i name="PARAM1">      0.12340000</i>
   <i name="PARAM2">      1.00000000</i>
   <i name="PARAM3">      0.00000000</i>
  </separator>
  <separator name="model GW" >
   <i type="int" name="MODEL_GW">     0</i>
   <i name="MODEL_EPS0">     25.21285236</i>
   <i name="MODEL_ALPHA">      1.00000000</i>
  </separator>
  <separator name="linear response parameters" >
   <i type="logical" name="LEPSILON"> F  </i>
   <i type="logical" name="LRPA"> F  </i>
   <i type="logical" name="LNABLA"> F  </i>
   <i type="logical" name="LVEL"> F  </i>
   <i type="int" name="KINTER">     0</i>
   <i name="CSHIFT">      0.10000000</i>
   <i name="OMEGAMAX">     -1.00000000</i>
   <i name="DEG_THRESHOLD">      0.00200000</i>
   <i name="RTIME">     -0.10000000</i>
   <i name="WPLASMAI">      0.00000000</i>
   <v name="DFIELD">      0.00000000      0.00000000      0.00000000</v>
   <v name="WPLASMA">      0.00000000      0.00000000      0.00000000      0.00000000      0.00000000      0.00000000      0.00000000      0.00000000      0.00000000</v>
  </separator>
  <separator name="orbital magnetization" >
   <i type="logical" name="NUCIND"> F  </i>
   <v name="MAGPOS">      0.00000000      0.00000000      0.00000000</v>
   <i type="logical" name="LNICSALL"> T  </i>
   <i type="logical" name="ORBITALMAG"> F  </i>
   <i type="logical" name="LMAGBLOCH"> F  </i>
   <i type="logical" name="LCHIMAG"> F  </i>
   <i type="logical" name="LGAUGE"> T  </i>
   <i type="int" name="MAGATOM">     0</i>
   <v name="MAGDIPOL">      0.00000000      0.00000000      0.00000000</v>
   <v name="AVECCONST">      0.00000000      0.00000000      0.00000000</v>
  </separator>
  <separator name="response functions" >
   <i type="logical" name="LADDER"> F  </i>
   <i type="logical" name="LRPAFORCE"> F  </i>
   <i type="logical" name="LFXC"> F  </i>
   <i type="logical" name="LHARTREE"> T  </i>
   <i type="int" name="IBSE">     0</i>
   <v type="int" name="KPOINT">    -1     0     0     0</v>
   <i type="logical" name="LTCTE"> F  </i>
   <i type="logical" name="LTETE"> F  </i>
   <i type="logical" name="LTRIPLET"> F  </i>
   <i type="logical" name="LFXCEPS"> F  </i>
   <i type="logical" name="LFXHEG"> F  </i>
   <i type="int" name="NATURALO">     2</i>
   <i type="logical" name="L2ORDER"> F  </i>
   <i type="logical" name="LMP2LT"> F  </i>
   <i type="logical" name="LUSEW"> F  </i>
   <i name="ENCUTGW">     -2.00000000</i>
   <i name="ENCUTGWSOFT">     -2.00000000</i>
   <i name="ENCUTLF">     -1.00000000</i>
   <i type="int" name="LMAXMP2">    -1</i>
   <i name="SCISSOR">      0.00000000</i>
   <i type="int" name="NOMEGA">     0</i>
   <i type="int" name="NOMEGAR">     0</i>
   <i type="int" name="NBANDSGW">    -1</i>
   <i type="int" name="NBANDSO">    -1</i>
   <i type="int" name="NBANDSV">    -1</i>
   <i type="int" name="NELM">   150</i>
   <i type="int" name="NELMHF">     1</i>
   <i type="int" name="DIM">     3</i>
   <i type="int" name="ANTIRES">     0</i>
   <i name="OMEGAMAX">    -30.00000000</i>
   <i name="OMEGAMIN">    -30.00000000</i>
   <i name="OMEGATL">   -200.00000000</i>
   <i type="int" name="OMEGAGRID">   140</i>
   <i name="CSHIFT">     -0.10000000</i>
   <i type="logical" name="SELFENERGY"> F  </i>
   <i type="logical" name="LSPECTRAL"> F  </i>
   <i type="logical" name="LSPECTRALGW"> F  </i>
   <i type="logical" name="LSINGLES"> F  </i>
   <i type="logical" name="LFERMIGW"> F  </i>
   <i type="logical" name="ODDONLYGW"> F  </i>
   <i type="logical" name="EVENONLYGW"> F  </i>
   <i type="int" name="NKREDLFX">     1</i>
   <i type="int" name="NKREDLFY">     1</i>
   <i type="int" name="NKREDLFZ">     1</i>
   <i type="int" name="MAXMEM">  2800</i>
   <i type="int" name="TELESCOPE">     0</i>
   <i type="int" name="TAUPAR">     1</i>
   <i type="int" name="OMEGAPAR">    -1</i>
   <i name="LAMBDA">      1.00000000</i>
  </separator>
  <separator name="External order field" >
   <i name="OFIELD_KAPPA">      0.00000000</i>
   <v name="OFIELD_K">      0.00000000      0.00000000      0.00000000</v>
   <i name="OFIELD_Q6_NEAR">      0.00000000</i>
   <i name="OFIELD_Q6_FAR">      0.00000000</i>
   <i name="OFIELD_A">      0.00000000</i>
  </separator>
 </parameters>
 <atominfo>
  <atoms>       4 </atoms>
  <types>       3 </types>
  <array name="atoms" >
   <dimension dim="1">ion</dimension>
   <field type="string">element</field>
   <field type="int">atomtype</field>
   <set>
    <rc><c>Cs</c><c>   1</c></rc>
    <rc><c>K </c><c>   2</c></rc>
    <rc><c>K </c><c>   2</c></rc>
    <rc><c>Sb</c><c>   3</c></rc>
   </set>
  </array>
  <array name="atomtypes" >
   <dimension dim="1">type</dimension>
   <field type="int">atomspertype</field>
   <field type="string">element</field>
   <field>mass</field>
   <field>valence</field>
   <field type="string">pseudopotential</field>
   <set>
    <rc><c>   1</c><c>Cs</c><c>    132.90000000</c><c>      9.00000000</c><c>  PAW_PBE Cs_sv 08Apr2002               </c></rc>
    <rc><c>   2</c><c>K </c><c>     39.09800000</c><c>      9.00000000</c><c>  PAW_PBE K_sv 06Sep2000                </c></rc>
    <rc><c>   1</c><c>Sb</c><c>    121.75000000</c><c>      5.00000000</c><c>  PAW_PBE Sb 06Sep2000                  </c></rc>
   </set>
  </array>
 </atominfo>
 <structure name="initialpos" >
  <crystal>
   <varray name="basis" >
    <v>       4.38026355      -4.38026355       0.00000000 </v>
    <v>      -4.38026355       0.00000000      -4.38026355 </v>
    <v>       4.38026355       4.38026355       0.00000000 </v>
   </varray>
   <i name="volume">    168.08568240 </i>
   <varray name="rec_basis" >
    <v>       0.11414838      -0.11414838      -0.11414838 </v>
    <v>       0.00000000       0.00000000      -0.22829677 </v>
    <v>       0.11414838       0.11414838      -0.11414838 </v>
   </varray>
  </crystal>
  <varray name="positions" >
   <v>       0.50000046       0.00000000       0.50000046 </v>
   <v>       0.74999897       0.49999931       0.24999966 </v>
   <v>       0.24999966       0.49999931       0.74999897 </v>
   <v>       0.00000000       0.00000000       0.00000000 </v>
  </varray>
 </structure>
 <calculation>
  <scstep>
   <time name="dav">    0.38    0.38</time>
   <time name="total">    0.47    0.47</time>
   <energy>
    <i name="alphaZ">     88.25421461 </i>
    <i name="ewald">  -1567.71660157 </i>
    <i name="hartreedc">   -541.51905130 </i>
    <i name="XCdc">     35.18803896 </i>
    <i name="pawpsdc">   1776.42413506 </i>
    <i name="pawaedc">  -1705.39518631 </i>
    <i name="eentropy">     -0.00210196 </i>
    <i name="bandstr">   -109.68652808 </i>
    <i name="atom">   2255.64356714 </i>
    <i name="e_fr_energy">    231.19048654 </i>
    <i name="e_wo_entrp">    231.19258850 </i>
    <i name="e_0_energy">    231.19153752 </i>
   </energy>
  </scstep>
  <scstep>
   <time name="dav">    0.41    0.42</time>
   <time name="total">    0.41    0.42</time>
   <energy>
    <i name="e_fr_energy">     10.25627730 </i>
    <i name="e_wo_entrp">     10.25754840 </i>
    <i name="e_0_energy">     10.25691285 </i>
   </energy>
  </scstep>
  <scstep>
   <time name="dav">    0.49    0.49</time>
   <time name="total">    0.49    0.49</time>
   <energy>
    <i name="e_fr_energy">     -8.99683386 </i>
    <i name="e_wo_entrp">     -8.99683386 </i>
    <i name="e_0_energy">     -8.99683386 </i>
   </energy>
  </scstep>
  <scstep>
   <time name="dav">    0.47    0.47</time>
   <time name="total">    0.47    0.47</time>
   <energy>
    <i name="e_fr_energy">     -9.66807865 </i>
    <i name="e_wo_entrp">     -9.66807865 </i>
    <i name="e_0_energy">     -9.66807865 </i>
   </energy>
  </scstep>
  <scstep>
   <time name="dav">    0.46    0.46</time>
   <time name="total">    0.51    0.51</time>
   <energy>
    <i name="e_fr_energy">     -9.69536043 </i>
    <i name="e_wo_entrp">     -9.69536043 </i>
    <i name="e_0_energy">     -9.69536043 </i>
   </energy>
  </scstep>
  <scstep>
   <time name="dav">    0.39    0.39</time>
   <time name="total">    0.54    0.55</time>
   <energy>
    <i name="e_fr_energy">     -8.77074371 </i>
    <i name="e_wo_entrp">     -8.77074371 </i>
    <i name="e_0_energy">     -8.77074371 </i>
   </energy>
  </scstep>
  <scstep>
   <time name="dav">    0.45    0.45</time>
   <time name="total">    0.59    0.60</time>
   <energy>
    <i name="e_fr_energy">     -8.66006915 </i>
    <i name="e_wo_entrp">     -8.66006915 </i>
    <i name="e_0_energy">     -8.66006915 </i>
   </energy>
  </scstep>
  <scstep>
   <time name="dav">    0.40    0.40</time>
   <time name="total">    0.54    0.54</time>
   <energy>
    <i name="e_fr_energy">     -8.67993198 </i>
    <i name="e_wo_entrp">     -8.67993198 </i>
    <i name="e_0_energy">     -8.67993198 </i>
   </energy>
  </scstep>
  <scstep>
   <time name="dav">    0.39    0.39</time>
   <time name="total">    0.53    0.53</time>
   <energy>
    <i name="e_fr_energy">     -8.66312648 </i>
    <i name="e_wo_entrp">     -8.66312648 </i>
    <i name="e_0_energy">     -8.66312648 </i>
   </energy>
  </scstep>
  <scstep>
   <time name="dav">    0.44    0.45</time>
   <time name="total">    0.59    0.59</time>
   <energy>
    <i name="e_fr_energy">     -8.66433531 </i>
    <i name="e_wo_entrp">     -8.66433531 </i>
    <i name="e_0_energy">     -8.66433531 </i>
   </energy>
  </scstep>
  <scstep>
   <time name="dav">    0.40    0.40</time>
   <time name="total">    0.54    0.54</time>
   <energy>
    <i name="e_fr_energy">     -8.66445271 </i>
    <i name="e_wo_entrp">     -8.66445271 </i>
    <i name="e_0_energy">     -8.66445271 </i>
   </energy>
  </scstep>
  <scstep>
   <time name="dav">    0.46    0.46</time>
   <time name="total">    0.60    0.60</time>
   <energy>
    <i name="e_fr_energy">     -8.66444883 </i>
    <i name="e_wo_entrp">     -8.66444883 </i>
    <i name="e_0_energy">     -8.66444883 </i>
   </energy>
  </scstep>
  <scstep>
   <time name="dav">    0.49    0.49</time>
   <time name="total">    0.63    0.64</time>
   <energy>
    <i name="e_fr_energy">     -8.66445261 </i>
    <i name="e_wo_entrp">     -8.66445261 </i>
    <i name="e_0_energy">     -8.66445261 </i>
   </energy>
  </scstep>
  <scstep>
   <time name="dav">    0.43    0.43</time>
   <time name="total">    0.57    0.57</time>
   <energy>
    <i name="e_fr_energy">     -8.66445298 </i>
    <i name="e_wo_entrp">     -8.66445298 </i>
    <i name="e_0_energy">     -8.66445298 </i>
   </energy>
  </scstep>
  <scstep>
   <time name="dav">    0.35    0.35</time>
   <time name="total">    0.49    0.49</time>
   <energy>
    <i name="e_fr_energy">     -8.66445293 </i>
    <i name="e_wo_entrp">     -8.66445293 </i>
    <i name="e_0_energy">     -8.66445293 </i>
   </energy>
  </scstep>
  <scstep>
   <time name="dav">    0.36    0.36</time>
   <time name="total">    0.50    0.50</time>
   <energy>
    <i name="e_fr_energy">     -8.66445297 </i>
    <i name="e_wo_entrp">     -8.66445297 </i>
    <i name="e_0_energy">     -8.66445297 </i>
   </energy>
  </scstep>
  <scstep>
   <time name="dav">    0.30    0.30</time>
   <time name="total">    0.38    0.38</time>
   <energy>
    <i name="alphaZ">     88.25421461 </i>
    <i name="ewald">  -1567.71660157 </i>
    <i name="hartreedc">   -528.60223538 </i>
    <i name="XCdc">     35.31471631 </i>
    <i name="pawpsdc">   1903.33416293 </i>
    <i name="pawaedc">  -1833.83280901 </i>
    <i name="eentropy">     -0.00000000 </i>
    <i name="bandstr">   -361.05946801 </i>
    <i name="atom">   2255.64356714 </i>
    <i name="e_fr_energy">     -8.66445298 </i>
    <i name="e_wo_entrp">     -8.66445298 </i>
    <i name="e_0_energy">     -8.66445298 </i>
   </energy>
  </scstep>
  <structure>
   <crystal>
    <varray name="basis" >
     <v>       4.38026355      -4.38026355       0.00000000 </v>
     <v>      -4.38026355       0.00000000      -4.38026355 </v>
     <v>       4.38026355       4.38026355       0.00000000 </v>
    </varray>
    <i name="volume">    168.08568240 </i>
    <varray name="rec_basis" >
     <v>       0.11414838      -0.11414838      -0.11414838 </v>
     <v>       0.00000000       0.00000000      -0.22829677 </v>
     <v>       0.11414838       0.11414838      -0.11414838 </v>
    </varray>
   </crystal>
   <varray name="positions" >
    <v>       0.50000046       0.00000000       0.50000046 </v>
    <v>       0.74999897       0.49999931       0.24999966 </v>
    <v>       0.24999966       0.49999931       0.74999897 </v>
    <v>       0.00000000       0.00000000       0.00000000 </v>
   </varray>
  </structure>
  <varray name="forces" >
   <v>       0.00000000      -0.00000000       0.00000000 </v>
   <v>      -0.00000000       0.00000000      -0.00000000 </v>
   <v>      -0.00000000      -0.00000000       0.00000000 </v>
   <v>       0.00000000      -0.00000000       0.00000000 </v>
  </varray>
  <varray name="stress" >
   <v>       0.00505724       0.00000000      -0.00000000 </v>
   <v>      -0.00000000       0.00505724       0.00000000 </v>
   <v>      -0.00000000      -0.00000000       0.00505724 </v>
  </varray>
  <energy>
   <i name="e_fr_energy">     -8.66445298 </i>
   <i name="e_wo_entrp">     -8.66445298 </i>
   <i name="e_0_energy">     -0.00000000 </i>
  </energy>
  <time name="totalsc">    9.45    9.48</time>
  <eigenvalues>
   <array>
    <dimension dim="1">band</dimension>
    <dimension dim="2">kpoint</dimension>
    <dimension dim="3">spin</dimension>
    <field>eigene</field>
    <field>occ</field>
    <set>
     <set comment="spin 1">
      <set comment="kpoint 1">
       <r>  -29.1481    1.0000 </r>
       <r>  -29.1370    1.0000 </r>
       <r>  -21.0868    1.0000 </r>
       <r>  -12.6874    1.0000 </r>
       <r>  -12.6874    1.0000 </r>
       <r>  -12.6874    1.0000 </r>
       <r>  -12.6315    1.0000 </r>
       <r>  -12.6315    1.0000 </r>
       <r>  -12.6315    1.0000 </r>
       <r>   -7.9371    1.0000 </r>
       <r>   -7.9371    1.0000 </r>
       <r>   -7.9371    1.0000 </r>
       <r>   -5.4217    1.0000 </r>
       <r>    1.7910    1.0000 </r>
       <r>    1.7910    1.0000 </r>
       <r>    1.7910    1.0000 </r>
       <r>    2.6388    0.0000 </r>
       <r>    3.9793    0.0000 </r>
       <r>    3.9793    0.0000 </r>
       <r>    4.4815    0.0000 </r>
      </set>
      <set comment="kpoint 2">
       <r>  -29.1477    1.0000 </r>
       <r>  -29.1374    1.0000 </r>
       <r>  -21.0869    1.0000 </r>
       <r>  -12.6873    1.0000 </r>
       <r>  -12.6857    1.0000 </r>
       <r>  -12.6857    1.0000 </r>
       <r>  -12.6339    1.0000 </r>
       <r>  -12.6339    1.0000 </r>
       <r>  -12.6322    1.0000 </r>
       <r>   -7.9470    1.0000 </r>
       <r>   -7.9359    1.0000 </r>
       <r>   -7.9359    1.0000 </r>
       <r>   -5.3903    1.0000 </r>
       <r>    1.4236    1.0000 </r>
       <r>    1.7216    1.0000 </r>
       <r>    1.7217    1.0000 </r>
       <r>    3.1466    0.0000 </r>
       <r>    4.1799    0.0000 </r>
       <r>    4.1799    0.0000 </r>
       <r>    4.4111    0.0000 </r>
      </set>
      <set comment="kpoint 3">
       <r>  -29.1464    1.0000 </r>
       <r>  -29.1385    1.0000 </r>
       <r>  -21.0874    1.0000 </r>
       <r>  -12.6848    1.0000 </r>
       <r>  -12.6806    1.0000 </r>
       <r>  -12.6806    1.0000 </r>
       <r>  -12.6407    1.0000 </r>
       <r>  -12.6407    1.0000 </r>
       <r>  -12.6366    1.0000 </r>
       <r>   -7.9681    1.0000 </r>
       <r>   -7.9329    1.0000 </r>
       <r>   -7.9329    1.0000 </r>
       <r>   -5.3190    1.0000 </r>
       <r>    0.9833    1.0000 </r>
       <r>    1.5840    1.0000 </r>
       <r>    1.5840    1.0000 </r>
       <r>    3.8178    0.0000 </r>
       <r>    4.5312    0.0000 </r>
       <r>    4.6746    0.0000 </r>
       <r>    4.6788    0.0000 </r>
      </set>
      <set comment="kpoint 4">
       <r>  -29.1445    1.0000 </r>
       <r>  -29.1403    1.0000 </r>
       <r>  -21.0878    1.0000 </r>
       <r>  -12.6773    1.0000 </r>
       <r>  -12.6726    1.0000 </r>
       <r>  -12.6726    1.0000 </r>
       <r>  -12.6503    1.0000 </r>
       <r>  -12.6503    1.0000 </r>
       <r>  -12.6461    1.0000 </r>
       <r>   -7.9857    1.0000 </r>
       <r>   -7.9300    1.0000 </r>
       <r>   -7.9299    1.0000 </r>
       <r>   -5.2537    1.0000 </r>
       <r>    0.7006    1.0000 </r>
       <r>    1.4737    1.0000 </r>
       <r>    1.4737    1.0000 </r>
       <r>    4.1648    0.0000 </r>
       <r>    4.8768    0.0000 </r>
       <r>    4.8768    0.0000 </r>
       <r>    5.1555    0.0000 </r>
      </set>
      <set comment="kpoint 5">
       <r>  -29.1424    1.0000 </r>
       <r>  -29.1424    1.0000 </r>
       <r>  -21.0879    1.0000 </r>
       <r>  -12.6701    1.0000 </r>
       <r>  -12.6651    1.0000 </r>
       <r>  -12.6651    1.0000 </r>
       <r>  -12.6586    1.0000 </r>
       <r>  -12.6586    1.0000 </r>
       <r>  -12.6542    1.0000 </r>
       <r>   -7.9921    1.0000 </r>
       <r>   -7.9287    1.0000 </r>
       <r>   -7.9287    1.0000 </r>
       <r>   -5.2283    1.0000 </r>
       <r>    0.6026    1.0000 </r>
       <r>    1.4336    1.0000 </r>
       <r>    1.4337    1.0000 </r>
       <r>    4.4553    0.0000 </r>
       <r>    4.9967    0.0000 </r>
       <r>    4.9967    0.0000 </r>
       <r>    5.1128    0.0000 </r>
      </set>
      <set comment="kpoint 6">
       <r>  -29.1475    1.0000 </r>
       <r>  -29.1375    1.0000 </r>
       <r>  -21.0870    1.0000 </r>
       <r>  -12.6909    1.0000 </r>
       <r>  -12.6909    1.0000 </r>
       <r>  -12.6763    1.0000 </r>
       <r>  -12.6424    1.0000 </r>
       <r>  -12.6295    1.0000 </r>
       <r>  -12.6295    1.0000 </r>
       <r>   -7.9499    1.0000 </r>
       <r>   -7.9354    1.0000 </r>
       <r>   -7.9354    1.0000 </r>
       <r>   -5.3821    1.0000 </r>
       <r>    1.2847    1.0000 </r>
       <r>    1.7753    1.0000 </r>
       <r>    1.7753    1.0000 </r>
       <r>    3.1581    0.0000 </r>
       <r>    4.0878    0.0000 </r>
       <r>    4.2258    0.0000 </r>
       <r>    4.4356    0.0000 </r>
      </set>
      <set comment="kpoint 7">
       <r>  -29.1466    1.0000 </r>
       <r>  -29.1383    1.0000 </r>
       <r>  -21.0873    1.0000 </r>
       <r>  -12.6924    1.0000 </r>
       <r>  -12.6919    1.0000 </r>
       <r>  -12.6652    1.0000 </r>
       <r>  -12.6540    1.0000 </r>
       <r>  -12.6301    1.0000 </r>
       <r>  -12.6296    1.0000 </r>
       <r>   -7.9648    1.0000 </r>
       <r>   -7.9340    1.0000 </r>
       <r>   -7.9330    1.0000 </r>
       <r>   -5.3305    1.0000 </r>
       <r>    0.9965    1.0000 </r>
       <r>    1.6438    1.0000 </r>
       <r>    1.7017    1.0000 </r>
       <r>    3.6556    0.0000 </r>
       <r>    4.0964    0.0000 </r>
       <r>    4.3773    0.0000 </r>
       <r>    4.7720    0.0000 </r>
      </set>
      <set comment="kpoint 8">
       <r>  -29.1450    1.0000 </r>
       <r>  -29.1398    1.0000 </r>
       <r>  -21.0877    1.0000 </r>
       <r>  -12.6892    1.0000 </r>
       <r>  -12.6882    1.0000 </r>
       <r>  -12.6672    1.0000 </r>
       <r>  -12.6530    1.0000 </r>
       <r>  -12.6355    1.0000 </r>
       <r>  -12.6355    1.0000 </r>
       <r>   -7.9791    1.0000 </r>
       <r>   -7.9335    1.0000 </r>
       <r>   -7.9300    1.0000 </r>
       <r>   -5.2713    1.0000 </r>
       <r>    0.7940    1.0000 </r>
       <r>    1.4647    1.0000 </r>
       <r>    1.5744    1.0000 </r>
       <r>    3.9758    0.0000 </r>
       <r>    4.5355    0.0000 </r>
       <r>    4.8748    0.0000 </r>
       <r>    5.0292    0.0000 </r>
      </set>
      <set comment="kpoint 9">
       <r>  -29.1431    1.0000 </r>
       <r>  -29.1417    1.0000 </r>
       <r>  -21.0880    1.0000 </r>
       <r>  -12.6861    1.0000 </r>
       <r>  -12.6800    1.0000 </r>
       <r>  -12.6735    1.0000 </r>
       <r>  -12.6465    1.0000 </r>
       <r>  -12.6444    1.0000 </r>
       <r>  -12.6413    1.0000 </r>
       <r>   -7.9856    1.0000 </r>
       <r>   -7.9339    1.0000 </r>
       <r>   -7.9283    1.0000 </r>
       <r>   -5.2373    1.0000 </r>
       <r>    0.6951    1.0000 </r>
       <r>    1.3889    1.0000 </r>
       <r>    1.4736    1.0000 </r>
       <r>    4.2978    0.0000 </r>
       <r>    4.9388    0.0000 </r>
       <r>    5.0028    0.0000 </r>
       <r>    5.0606    0.0000 </r>
      </set>
      <set comment="kpoint 10">
       <r>  -29.1437    1.0000 </r>
       <r>  -29.1411    1.0000 </r>
       <r>  -21.0879    1.0000 </r>
       <r>  -12.6927    1.0000 </r>
       <r>  -12.6685    1.0000 </r>
       <r>  -12.6659    1.0000 </r>
       <r>  -12.6571    1.0000 </r>
       <r>  -12.6552    1.0000 </r>
       <r>  -12.6319    1.0000 </r>
       <r>   -7.9836    1.0000 </r>
       <r>   -7.9345    1.0000 </r>
       <r>   -7.9287    1.0000 </r>
       <r>   -5.2432    1.0000 </r>
       <r>    0.7144    1.0000 </r>
       <r>    1.4376    1.0000 </r>
       <r>    1.4399    1.0000 </r>
       <r>    4.3054    0.0000 </r>
       <r>    4.8095    0.0000 </r>
       <r>    4.8466    0.0000 </r>
       <r>    5.1215    0.0000 </r>
      </set>
      <set comment="kpoint 11">
       <r>  -29.1455    1.0000 </r>
       <r>  -29.1393    1.0000 </r>
       <r>  -21.0876    1.0000 </r>
       <r>  -12.6961    1.0000 </r>
       <r>  -12.6735    1.0000 </r>
       <r>  -12.6670    1.0000 </r>
       <r>  -12.6549    1.0000 </r>
       <r>  -12.6486    1.0000 </r>
       <r>  -12.6269    1.0000 </r>
       <r>   -7.9738    1.0000 </r>
       <r>   -7.9350    1.0000 </r>
       <r>   -7.9312    1.0000 </r>
       <r>   -5.2870    1.0000 </r>
       <r>    0.8585    1.0000 </r>
       <r>    1.4792    1.0000 </r>
       <r>    1.5884    1.0000 </r>
       <r>    3.9901    0.0000 </r>
       <r>    4.4473    0.0000 </r>
       <r>    4.6513    0.0000 </r>
       <r>    4.8703    0.0000 </r>
      </set>
      <set comment="kpoint 12">
       <r>  -29.1470    1.0000 </r>
       <r>  -29.1380    1.0000 </r>
       <r>  -21.0872    1.0000 </r>
       <r>  -12.6936    1.0000 </r>
       <r>  -12.6815    1.0000 </r>
       <r>  -12.6774    1.0000 </r>
       <r>  -12.6429    1.0000 </r>
       <r>  -12.6389    1.0000 </r>
       <r>  -12.6276    1.0000 </r>
       <r>   -7.9587    1.0000 </r>
       <r>   -7.9352    1.0000 </r>
       <r>   -7.9341    1.0000 </r>
       <r>   -5.3484    1.0000 </r>
       <r>    1.1243    1.0000 </r>
       <r>    1.5901    1.0000 </r>
       <r>    1.7320    1.0000 </r>
       <r>    3.5447    0.0000 </r>
       <r>    4.2859    0.0000 </r>
       <r>    4.3958    0.0000 </r>
       <r>    4.5386    0.0000 </r>
      </set>
      <set comment="kpoint 13">
       <r>  -29.1461    1.0000 </r>
       <r>  -29.1387    1.0000 </r>
       <r>  -21.0876    1.0000 </r>
       <r>  -12.6990    1.0000 </r>
       <r>  -12.6990    1.0000 </r>
       <r>  -12.6688    1.0000 </r>
       <r>  -12.6492    1.0000 </r>
       <r>  -12.6248    1.0000 </r>
       <r>  -12.6248    1.0000 </r>
       <r>   -7.9727    1.0000 </r>
       <r>   -7.9313    1.0000 </r>
       <r>   -7.9313    1.0000 </r>
       <r>   -5.3134    1.0000 </r>
       <r>    0.8796    1.0000 </r>
       <r>    1.7439    1.0000 </r>
       <r>    1.7439    1.0000 </r>
       <r>    3.7053    0.0000 </r>
       <r>    3.7208    0.0000 </r>
       <r>    4.4107    0.0000 </r>
       <r>    4.9734    0.0000 </r>
      </set>
      <set comment="kpoint 14">
       <r>  -29.1451    1.0000 </r>
       <r>  -29.1397    1.0000 </r>
       <r>  -21.0879    1.0000 </r>
       <r>  -12.7010    1.0000 </r>
       <r>  -12.7004    1.0000 </r>
       <r>  -12.6821    1.0000 </r>
       <r>  -12.6354    1.0000 </r>
       <r>  -12.6255    1.0000 </r>
       <r>  -12.6250    1.0000 </r>
       <r>   -7.9795    1.0000 </r>
       <r>   -7.9321    1.0000 </r>
       <r>   -7.9289    1.0000 </r>
       <r>   -5.2827    1.0000 </r>
       <r>    0.8411    1.0000 </r>
       <r>    1.6003    1.0000 </r>
       <r>    1.6810    1.0000 </r>
       <r>    3.6331    0.0000 </r>
       <r>    4.1099    0.0000 </r>
       <r>    4.7656    0.0000 </r>
       <r>    5.1907    0.0000 </r>
      </set>
      <set comment="kpoint 15">
       <r>  -29.1436    1.0000 </r>
       <r>  -29.1410    1.0000 </r>
       <r>  -21.0881    1.0000 </r>
       <r>  -12.7027    1.0000 </r>
       <r>  -12.6956    1.0000 </r>
       <r>  -12.6856    1.0000 </r>
       <r>  -12.6335    1.0000 </r>
       <r>  -12.6305    1.0000 </r>
       <r>  -12.6247    1.0000 </r>
       <r>   -7.9771    1.0000 </r>
       <r>   -7.9396    1.0000 </r>
       <r>   -7.9272    1.0000 </r>
       <r>   -5.2574    1.0000 </r>
       <r>    0.8896    1.0000 </r>
       <r>    1.3650    1.0000 </r>
       <r>    1.5715    1.0000 </r>
       <r>    3.8525    0.0000 </r>
       <r>    4.5976    0.0000 </r>
       <r>    5.0635    0.0000 </r>
       <r>    5.0772    0.0000 </r>
      </set>
      <set comment="kpoint 16">
       <r>  -29.1426    1.0000 </r>
       <r>  -29.1420    1.0000 </r>
       <r>  -21.0882    1.0000 </r>
       <r>  -12.7065    1.0000 </r>
       <r>  -12.6851    1.0000 </r>
       <r>  -12.6757    1.0000 </r>
       <r>  -12.6467    1.0000 </r>
       <r>  -12.6403    1.0000 </r>
       <r>  -12.6189    1.0000 </r>
       <r>   -7.9699    1.0000 </r>
       <r>   -7.9482    1.0000 </r>
       <r>   -7.9271    1.0000 </r>
       <r>   -5.2476    1.0000 </r>
       <r>    0.9020    1.0000 </r>
       <r>    1.2919    1.0000 </r>
       <r>    1.4788    1.0000 </r>
       <r>    4.2755    0.0000 </r>
       <r>    4.5389    0.0000 </r>
       <r>    4.9294    0.0000 </r>
       <r>    5.0829    0.0000 </r>
      </set>
      <set comment="kpoint 17">
       <r>  -29.1442    1.0000 </r>
       <r>  -29.1405    1.0000 </r>
       <r>  -21.0879    1.0000 </r>
       <r>  -12.7047    1.0000 </r>
       <r>  -12.6707    1.0000 </r>
       <r>  -12.6618    1.0000 </r>
       <r>  -12.6612    1.0000 </r>
       <r>  -12.6529    1.0000 </r>
       <r>  -12.6195    1.0000 </r>
       <r>   -7.9721    1.0000 </r>
       <r>   -7.9435    1.0000 </r>
       <r>   -7.9288    1.0000 </r>
       <r>   -5.2580    1.0000 </r>
       <r>    0.8391    1.0000 </r>
       <r>    1.4416    1.0000 </r>
       <r>    1.4417    1.0000 </r>
       <r>    4.3040    0.0000 </r>
       <r>    4.5312    0.0000 </r>
       <r>    4.7420    0.0000 </r>
       <r>    4.7745    0.0000 </r>
      </set>
      <set comment="kpoint 18">
       <r>  -29.1447    1.0000 </r>
       <r>  -29.1400    1.0000 </r>
       <r>  -21.0881    1.0000 </r>
       <r>  -12.7070    1.0000 </r>
       <r>  -12.7070    1.0000 </r>
       <r>  -12.6950    1.0000 </r>
       <r>  -12.6219    1.0000 </r>
       <r>  -12.6202    1.0000 </r>
       <r>  -12.6202    1.0000 </r>
       <r>   -7.9853    1.0000 </r>
       <r>   -7.9273    1.0000 </r>
       <r>   -7.9273    1.0000 </r>
       <r>   -5.2837    1.0000 </r>
       <r>    0.8815    1.0000 </r>
       <r>    1.7203    1.0000 </r>
       <r>    1.7203    1.0000 </r>
       <r>    3.3105    0.0000 </r>
       <r>    4.0001    0.0000 </r>
       <r>    4.9381    0.0000 </r>
       <r>    5.2125    0.0000 </r>
      </set>
      <set comment="kpoint 19">
       <r>  -29.1440    1.0000 </r>
       <r>  -29.1406    1.0000 </r>
       <r>  -21.0883    1.0000 </r>
       <r>  -12.7107    1.0000 </r>
       <r>  -12.7064    1.0000 </r>
       <r>  -12.6980    1.0000 </r>
       <r>  -12.6226    1.0000 </r>
       <r>  -12.6215    1.0000 </r>
       <r>  -12.6141    1.0000 </r>
       <r>   -7.9829    1.0000 </r>
       <r>   -7.9313    1.0000 </r>
       <r>   -7.9261    1.0000 </r>
       <r>   -5.2757    1.0000 </r>
       <r>    0.9793    1.0000 </r>
       <r>    1.5530    1.0000 </r>
       <r>    1.6710    1.0000 </r>
       <r>    3.3889    0.0000 </r>
       <r>    4.0750    0.0000 </r>
       <r>    5.1795    0.0000 </r>
       <r>    5.2624    0.0000 </r>
      </set>
      <set comment="kpoint 20">
       <r>  -29.1431    1.0000 </r>
       <r>  -29.1416    1.0000 </r>
       <r>  -21.0883    1.0000 </r>
       <r>  -12.7127    1.0000 </r>
       <r>  -12.6986    1.0000 </r>
       <r>  -12.6888    1.0000 </r>
       <r>  -12.6326    1.0000 </r>
       <r>  -12.6285    1.0000 </r>
       <r>  -12.6129    1.0000 </r>
       <r>   -7.9706    1.0000 </r>
       <r>   -7.9456    1.0000 </r>
       <r>   -7.9260    1.0000 </r>
       <r>   -5.2617    1.0000 </r>
       <r>    1.1115    1.0000 </r>
       <r>    1.2258    1.0000 </r>
       <r>    1.5722    1.0000 </r>
       <r>    3.7692    0.0000 </r>
       <r>    4.3285    0.0000 </r>
       <r>    5.1318    0.0000 </r>
       <r>    5.3179    0.0000 </r>
      </set>
      <set comment="kpoint 21">
       <r>  -29.1441    1.0000 </r>
       <r>  -29.1405    1.0000 </r>
       <r>  -21.0883    1.0000 </r>
       <r>  -12.7102    1.0000 </r>
       <r>  -12.7102    1.0000 </r>
       <r>  -12.7059    1.0000 </r>
       <r>  -12.6184    1.0000 </r>
       <r>  -12.6184    1.0000 </r>
       <r>  -12.6105    1.0000 </r>
       <r>   -7.9877    1.0000 </r>
       <r>   -7.9256    1.0000 </r>
       <r>   -7.9256    1.0000 </r>
       <r>   -5.2829    1.0000 </r>
       <r>    0.9913    1.0000 </r>
       <r>    1.7125    1.0000 </r>
       <r>    1.7125    1.0000 </r>
       <r>    3.1587    0.0000 </r>
       <r>    3.8752    0.0000 </r>
       <r>    5.1810    0.0000 </r>
       <r>    5.5176    0.0000 </r>
      </set>
      <set comment="kpoint 22">
       <r>  -29.1456    1.0000 </r>
       <r>  -29.1393    1.0000 </r>
       <r>  -21.0877    1.0000 </r>
       <r>  -12.7006    1.0000 </r>
       <r>  -12.6870    1.0000 </r>
       <r>  -12.6681    1.0000 </r>
       <r>  -12.6513    1.0000 </r>
       <r>  -12.6370    1.0000 </r>
       <r>  -12.6232    1.0000 </r>
       <r>   -7.9735    1.0000 </r>
       <r>   -7.9348    1.0000 </r>
       <r>   -7.9309    1.0000 </r>
       <r>   -5.2913    1.0000 </r>
       <r>    0.8623    1.0000 </r>
       <r>    1.5521    1.0000 </r>
       <r>    1.6383    1.0000 </r>
       <r>    3.9784    0.0000 </r>
       <r>    3.9914    0.0000 </r>
       <r>    4.7110    0.0000 </r>
       <r>    4.8838    0.0000 </r>
      </set>
      <set comment="kpoint 23">
       <r>  -29.1441    1.0000 </r>
       <r>  -29.1407    1.0000 </r>
       <r>  -21.0880    1.0000 </r>
       <r>  -12.7037    1.0000 </r>
       <r>  -12.6815    1.0000 </r>
       <r>  -12.6765    1.0000 </r>
       <r>  -12.6485    1.0000 </r>
       <r>  -12.6385    1.0000 </r>
       <r>  -12.6226    1.0000 </r>
       <r>   -7.9761    1.0000 </r>
       <r>   -7.9394    1.0000 </r>
       <r>   -7.9288    1.0000 </r>
       <r>   -5.2573    1.0000 </r>
       <r>    0.8323    1.0000 </r>
       <r>    1.4191    1.0000 </r>
       <r>    1.5079    1.0000 </r>
       <r>    4.0913    0.0000 </r>
       <r>    4.5006    0.0000 </r>
       <r>    4.8561    0.0000 </r>
       <r>    5.1184    0.0000 </r>
      </set>
      <set comment="kpoint 24">
       <r>  -29.1424    1.0000 </r>
       <r>  -29.1423    1.0000 </r>
       <r>  -21.0881    1.0000 </r>
       <r>  -12.7033    1.0000 </r>
       <r>  -12.6872    1.0000 </r>
       <r>  -12.6658    1.0000 </r>
       <r>  -12.6603    1.0000 </r>
       <r>  -12.6290    1.0000 </r>
       <r>  -12.6275    1.0000 </r>
       <r>   -7.9755    1.0000 </r>
       <r>   -7.9425    1.0000 </r>
       <r>   -7.9279    1.0000 </r>
       <r>   -5.2447    1.0000 </r>
       <r>    0.8423    1.0000 </r>
       <r>    1.3324    1.0000 </r>
       <r>    1.4705    1.0000 </r>
       <r>    4.3857    0.0000 </r>
       <r>    4.4599    0.0000 </r>
       <r>    4.9944    0.0000 </r>
       <r>    5.1965    0.0000 </r>
      </set>
      <set comment="kpoint 25">
       <r>  -29.1442    1.0000 </r>
       <r>  -29.1405    1.0000 </r>
       <r>  -21.0881    1.0000 </r>
       <r>  -12.7105    1.0000 </r>
       <r>  -12.6941    1.0000 </r>
       <r>  -12.6918    1.0000 </r>
       <r>  -12.6335    1.0000 </r>
       <r>  -12.6234    1.0000 </r>
       <r>  -12.6189    1.0000 </r>
       <r>   -7.9789    1.0000 </r>
       <r>   -7.9345    1.0000 </r>
       <r>   -7.9283    1.0000 </r>
       <r>   -5.2701    1.0000 </r>
       <r>    0.9125    1.0000 </r>
       <r>    1.5536    1.0000 </r>
       <r>    1.5558    1.0000 </r>
       <r>    3.6670    0.0000 </r>
       <r>    4.2259    0.0000 </r>
       <r>    5.0215    0.0000 </r>
       <r>    5.2011    0.0000 </r>
      </set>
      <set comment="kpoint 26">
       <r>  -29.1430    1.0000 </r>
       <r>  -29.1416    1.0000 </r>
       <r>  -21.0883    1.0000 </r>
       <r>  -12.7153    1.0000 </r>
       <r>  -12.6947    1.0000 </r>
       <r>  -12.6810    1.0000 </r>
       <r>  -12.6469    1.0000 </r>
       <r>  -12.6198    1.0000 </r>
       <r>  -12.6163    1.0000 </r>
       <r>   -7.9687    1.0000 </r>
       <r>   -7.9459    1.0000 </r>
       <r>   -7.9281    1.0000 </r>
       <r>   -5.2595    1.0000 </r>
       <r>    1.0528    1.0000 </r>
       <r>    1.3026    1.0000 </r>
       <r>    1.4984    1.0000 </r>
       <r>    3.9666    0.0000 </r>
       <r>    4.3440    0.0000 </r>
       <r>    4.8562    0.0000 </r>
       <r>    5.2328    0.0000 </r>
      </set>
      <set comment="kpoint 27">
       <r>  -29.1429    1.0000 </r>
       <r>  -29.1418    1.0000 </r>
       <r>  -21.0882    1.0000 </r>
       <r>  -12.7132    1.0000 </r>
       <r>  -12.6904    1.0000 </r>
       <r>  -12.6646    1.0000 </r>
       <r>  -12.6627    1.0000 </r>
       <r>  -12.6268    1.0000 </r>
       <r>  -12.6159    1.0000 </r>
       <r>   -7.9634    1.0000 </r>
       <r>   -7.9524    1.0000 </r>
       <r>   -7.9281    1.0000 </r>
       <r>   -5.2539    1.0000 </r>
       <r>    1.0001    1.0000 </r>
       <r>    1.2897    1.0000 </r>
       <r>    1.4605    1.0000 </r>
       <r>    4.2953    0.0000 </r>
       <r>    4.4539    0.0000 </r>
       <r>    4.5751    0.0000 </r>
       <r>    5.3475    0.0000 </r>
      </set>
      <set comment="kpoint 28">
       <r>  -29.1436    1.0000 </r>
       <r>  -29.1410    1.0000 </r>
       <r>  -21.0883    1.0000 </r>
       <r>  -12.7171    1.0000 </r>
       <r>  -12.6990    1.0000 </r>
       <r>  -12.6970    1.0000 </r>
       <r>  -12.6321    1.0000 </r>
       <r>  -12.6173    1.0000 </r>
       <r>  -12.6116    1.0000 </r>
       <r>   -7.9783    1.0000 </r>
       <r>   -7.9345    1.0000 </r>
       <r>   -7.9277    1.0000 </r>
       <r>   -5.2719    1.0000 </r>
       <r>    1.0514    1.0000 </r>
       <r>    1.5198    1.0000 </r>
       <r>    1.5353    1.0000 </r>
       <r>    3.5520    0.0000 </r>
       <r>    4.0648    0.0000 </r>
       <r>    5.2059    0.0000 </r>
       <r>    5.2216    0.0000 </r>
      </set>
      <set comment="kpoint 29">
       <r>  -29.1423    1.0000 </r>
       <r>  -29.1423    1.0000 </r>
       <r>  -21.0883    1.0000 </r>
       <r>  -12.7207    1.0000 </r>
       <r>  -12.6955    1.0000 </r>
       <r>  -12.6648    1.0000 </r>
       <r>  -12.6648    1.0000 </r>
       <r>  -12.6149    1.0000 </r>
       <r>  -12.6140    1.0000 </r>
       <r>   -7.9561    1.0000 </r>
       <r>   -7.9561    1.0000 </r>
       <r>   -7.9297    1.0000 </r>
       <r>   -5.2608    1.0000 </r>
       <r>    1.2347    1.0000 </r>
       <r>    1.2347    1.0000 </r>
       <r>    1.3863    1.0000 </r>
       <r>    4.1970    0.0000 </r>
       <r>    4.3859    0.0000 </r>
       <r>    4.3859    0.0000 </r>
       <r>    5.2398    0.0000 </r>
      </set>
     </set>
    </set>
   </array>
  </eigenvalues>
  <separator name="orbital magnetization" >
   <v name="MAGDIPOLOUT">      0.00000000      0.00000000      0.00000000</v>
  </separator>
  <dos>
   <i name="efermi">      2.05536745 </i>
   <total>
    <array>
     <dimension dim="1">gridpoints</dimension>
     <dimension dim="2">spin</dimension>
     <field>energy</field>
     <field>total</field>
     <field>integrated</field>
     <set>
      <set comment="spin 1">
       <r>   -30.8814     0.0000     0.0000 </r>
       <r>   -30.7543     0.0000     0.0000 </r>
       <r>   -30.6272     0.0000     0.0000 </r>
       <r>   -30.5001     0.0000     0.0000 </r>
       <r>   -30.3730     0.0000     0.0000 </r>
       <r>   -30.2459     0.0000     0.0000 </r>
       <r>   -30.1187     0.0000     0.0000 </r>
       <r>   -29.9916     0.0000     0.0000 </r>
       <r>   -29.8645     0.0000     0.0000 </r>
       <r>   -29.7374     0.0000     0.0000 </r>
       <r>   -29.6103     0.0000     0.0000 </r>
       <r>   -29.4832     0.0000     0.0000 </r>
       <r>   -29.3561     0.0000     0.0000 </r>
       <r>   -29.2290     0.2280     0.0290 </r>
       <r>   -29.1019    27.2593     3.4939 </r>
       <r>   -28.9748     3.9820     4.0000 </r>
       <r>   -28.8477     0.0000     4.0000 </r>
       <r>   -28.7206     0.0000     4.0000 </r>
       <r>   -28.5935     0.0000     4.0000 </r>
       <r>   -28.4663     0.0000     4.0000 </r>
       <r>   -28.3392     0.0000     4.0000 </r>
       <r>   -28.2121     0.0000     4.0000 </r>
       <r>   -28.0850     0.0000     4.0000 </r>
       <r>   -27.9579     0.0000     4.0000 </r>
       <r>   -27.8308     0.0000     4.0000 </r>
       <r>   -27.7037     0.0000     4.0000 </r>
       <r>   -27.5766     0.0000     4.0000 </r>
       <r>   -27.4495     0.0000     4.0000 </r>
       <r>   -27.3224     0.0000     4.0000 </r>
       <r>   -27.1953     0.0000     4.0000 </r>
       <r>   -27.0682     0.0000     4.0000 </r>
       <r>   -26.9411     0.0000     4.0000 </r>
       <r>   -26.8139     0.0000     4.0000 </r>
       <r>   -26.6868     0.0000     4.0000 </r>
       <r>   -26.5597     0.0000     4.0000 </r>
       <r>   -26.4326     0.0000     4.0000 </r>
       <r>   -26.3055     0.0000     4.0000 </r>
       <r>   -26.1784     0.0000     4.0000 </r>
       <r>   -26.0513     0.0000     4.0000 </r>
       <r>   -25.9242     0.0000     4.0000 </r>
       <r>   -25.7971     0.0000     4.0000 </r>
       <r>   -25.6700     0.0000     4.0000 </r>
       <r>   -25.5429     0.0000     4.0000 </r>
       <r>   -25.4158     0.0000     4.0000 </r>
       <r>   -25.2887     0.0000     4.0000 </r>
       <r>   -25.1615     0.0000     4.0000 </r>
       <r>   -25.0344     0.0000     4.0000 </r>
       <r>   -24.9073     0.0000     4.0000 </r>
       <r>   -24.7802     0.0000     4.0000 </r>
       <r>   -24.6531     0.0000     4.0000 </r>
       <r>   -24.5260     0.0000     4.0000 </r>
       <r>   -24.3989     0.0000     4.0000 </r>
       <r>   -24.2718     0.0000     4.0000 </r>
       <r>   -24.1447     0.0000     4.0000 </r>
       <r>   -24.0176     0.0000     4.0000 </r>
       <r>   -23.8905     0.0000     4.0000 </r>
       <r>   -23.7634     0.0000     4.0000 </r>
       <r>   -23.6363     0.0000     4.0000 </r>
       <r>   -23.5091     0.0000     4.0000 </r>
       <r>   -23.3820     0.0000     4.0000 </r>
       <r>   -23.2549     0.0000     4.0000 </r>
       <r>   -23.1278     0.0000     4.0000 </r>
       <r>   -23.0007     0.0000     4.0000 </r>
       <r>   -22.8736     0.0000     4.0000 </r>
       <r>   -22.7465     0.0000     4.0000 </r>
       <r>   -22.6194     0.0000     4.0000 </r>
       <r>   -22.4923     0.0000     4.0000 </r>
       <r>   -22.3652     0.0000     4.0000 </r>
       <r>   -22.2381     0.0000     4.0000 </r>
       <r>   -22.1110     0.0000     4.0000 </r>
       <r>   -21.9839     0.0000     4.0000 </r>
       <r>   -21.8568     0.0000     4.0000 </r>
       <r>   -21.7296     0.0000     4.0000 </r>
       <r>   -21.6025     0.0000     4.0000 </r>
       <r>   -21.4754     0.0000     4.0000 </r>
       <r>   -21.3483     0.0000     4.0000 </r>
       <r>   -21.2212     0.0013     4.0002 </r>
       <r>   -21.0941     6.7766     4.8615 </r>
       <r>   -20.9670     8.9519     5.9994 </r>
       <r>   -20.8399     0.0049     6.0000 </r>
       <r>   -20.7128     0.0000     6.0000 </r>
       <r>   -20.5857     0.0000     6.0000 </r>
       <r>   -20.4586     0.0000     6.0000 </r>
       <r>   -20.3315     0.0000     6.0000 </r>
       <r>   -20.2044     0.0000     6.0000 </r>
       <r>   -20.0772     0.0000     6.0000 </r>
       <r>   -19.9501     0.0000     6.0000 </r>
       <r>   -19.8230     0.0000     6.0000 </r>
       <r>   -19.6959     0.0000     6.0000 </r>
       <r>   -19.5688     0.0000     6.0000 </r>
       <r>   -19.4417     0.0000     6.0000 </r>
       <r>   -19.3146     0.0000     6.0000 </r>
       <r>   -19.1875     0.0000     6.0000 </r>
       <r>   -19.0604     0.0000     6.0000 </r>
       <r>   -18.9333     0.0000     6.0000 </r>
       <r>   -18.8062     0.0000     6.0000 </r>
       <r>   -18.6791     0.0000     6.0000 </r>
       <r>   -18.5520     0.0000     6.0000 </r>
       <r>   -18.4248     0.0000     6.0000 </r>
       <r>   -18.2977     0.0000     6.0000 </r>
       <r>   -18.1706     0.0000     6.0000 </r>
       <r>   -18.0435     0.0000     6.0000 </r>
       <r>   -17.9164     0.0000     6.0000 </r>
       <r>   -17.7893     0.0000     6.0000 </r>
       <r>   -17.6622     0.0000     6.0000 </r>
       <r>   -17.5351     0.0000     6.0000 </r>
       <r>   -17.4080     0.0000     6.0000 </r>
       <r>   -17.2809     0.0000     6.0000 </r>
       <r>   -17.1538     0.0000     6.0000 </r>
       <r>   -17.0267     0.0000     6.0000 </r>
       <r>   -16.8996     0.0000     6.0000 </r>
       <r>   -16.7724     0.0000     6.0000 </r>
       <r>   -16.6453     0.0000     6.0000 </r>
       <r>   -16.5182     0.0000     6.0000 </r>
       <r>   -16.3911     0.0000     6.0000 </r>
       <r>   -16.2640     0.0000     6.0000 </r>
       <r>   -16.1369     0.0000     6.0000 </r>
       <r>   -16.0098     0.0000     6.0000 </r>
       <r>   -15.8827     0.0000     6.0000 </r>
       <r>   -15.7556     0.0000     6.0000 </r>
       <r>   -15.6285     0.0000     6.0000 </r>
       <r>   -15.5014     0.0000     6.0000 </r>
       <r>   -15.3743     0.0000     6.0000 </r>
       <r>   -15.2472     0.0000     6.0000 </r>
       <r>   -15.1200     0.0000     6.0000 </r>
       <r>   -14.9929     0.0000     6.0000 </r>
       <r>   -14.8658     0.0000     6.0000 </r>
       <r>   -14.7387     0.0000     6.0000 </r>
       <r>   -14.6116     0.0000     6.0000 </r>
       <r>   -14.4845     0.0000     6.0000 </r>
       <r>   -14.3574     0.0000     6.0000 </r>
       <r>   -14.2303     0.0000     6.0000 </r>
       <r>   -14.1032     0.0000     6.0000 </r>
       <r>   -13.9761     0.0000     6.0000 </r>
       <r>   -13.8490     0.0000     6.0000 </r>
       <r>   -13.7219     0.0000     6.0000 </r>
       <r>   -13.5948     0.0000     6.0000 </r>
       <r>   -13.4676     0.0000     6.0000 </r>
       <r>   -13.3405     0.0000     6.0000 </r>
       <r>   -13.2134     0.0000     6.0000 </r>
       <r>   -13.0863     0.0000     6.0000 </r>
       <r>   -12.9592     0.0000     6.0000 </r>
       <r>   -12.8321     0.0038     6.0005 </r>
       <r>   -12.7050    17.3932     8.2113 </r>
       <r>   -12.5779    73.7850    17.5899 </r>
       <r>   -12.4508     3.2262    18.0000 </r>
       <r>   -12.3237     0.0000    18.0000 </r>
       <r>   -12.1966     0.0000    18.0000 </r>
       <r>   -12.0695     0.0000    18.0000 </r>
       <r>   -11.9424     0.0000    18.0000 </r>
       <r>   -11.8153     0.0000    18.0000 </r>
       <r>   -11.6881     0.0000    18.0000 </r>
       <r>   -11.5610     0.0000    18.0000 </r>
       <r>   -11.4339     0.0000    18.0000 </r>
       <r>   -11.3068     0.0000    18.0000 </r>
       <r>   -11.1797     0.0000    18.0000 </r>
       <r>   -11.0526     0.0000    18.0000 </r>
       <r>   -10.9255     0.0000    18.0000 </r>
       <r>   -10.7984     0.0000    18.0000 </r>
       <r>   -10.6713     0.0000    18.0000 </r>
       <r>   -10.5442     0.0000    18.0000 </r>
       <r>   -10.4171     0.0000    18.0000 </r>
       <r>   -10.2900     0.0000    18.0000 </r>
       <r>   -10.1629     0.0000    18.0000 </r>
       <r>   -10.0357     0.0000    18.0000 </r>
       <r>    -9.9086     0.0000    18.0000 </r>
       <r>    -9.7815     0.0000    18.0000 </r>
       <r>    -9.6544     0.0000    18.0000 </r>
       <r>    -9.5273     0.0000    18.0000 </r>
       <r>    -9.4002     0.0000    18.0000 </r>
       <r>    -9.2731     0.0000    18.0000 </r>
       <r>    -9.1460     0.0000    18.0000 </r>
       <r>    -9.0189     0.0000    18.0000 </r>
       <r>    -8.8918     0.0000    18.0000 </r>
       <r>    -8.7647     0.0000    18.0000 </r>
       <r>    -8.6376     0.0000    18.0000 </r>
       <r>    -8.5105     0.0000    18.0000 </r>
       <r>    -8.3833     0.0000    18.0000 </r>
       <r>    -8.2562     0.0000    18.0000 </r>
       <r>    -8.1291     0.0001    18.0000 </r>
       <r>    -8.0020     4.3735    18.5559 </r>
       <r>    -7.8749    41.1745    23.7895 </r>
       <r>    -7.7478     1.6559    24.0000 </r>
       <r>    -7.6207     0.0000    24.0000 </r>
       <r>    -7.4936     0.0000    24.0000 </r>
       <r>    -7.3665     0.0000    24.0000 </r>
       <r>    -7.2394     0.0000    24.0000 </r>
       <r>    -7.1123     0.0000    24.0000 </r>
       <r>    -6.9852     0.0000    24.0000 </r>
       <r>    -6.8581     0.0000    24.0000 </r>
       <r>    -6.7309     0.0000    24.0000 </r>
       <r>    -6.6038     0.0000    24.0000 </r>
       <r>    -6.4767     0.0000    24.0000 </r>
       <r>    -6.3496     0.0000    24.0000 </r>
       <r>    -6.2225     0.0000    24.0000 </r>
       <r>    -6.0954     0.0000    24.0000 </r>
       <r>    -5.9683     0.0000    24.0000 </r>
       <r>    -5.8412     0.0000    24.0000 </r>
       <r>    -5.7141     0.0000    24.0000 </r>
       <r>    -5.5870     0.0000    24.0000 </r>
       <r>    -5.4599     0.0133    24.0017 </r>
       <r>    -5.3328     1.6241    24.2081 </r>
       <r>    -5.2057    13.1347    25.8777 </r>
       <r>    -5.0785     0.9625    26.0000 </r>
       <r>    -4.9514     0.0000    26.0000 </r>
       <r>    -4.8243     0.0000    26.0000 </r>
       <r>    -4.6972     0.0000    26.0000 </r>
       <r>    -4.5701     0.0000    26.0000 </r>
       <r>    -4.4430     0.0000    26.0000 </r>
       <r>    -4.3159     0.0000    26.0000 </r>
       <r>    -4.1888     0.0000    26.0000 </r>
       <r>    -4.0617     0.0000    26.0000 </r>
       <r>    -3.9346     0.0000    26.0000 </r>
       <r>    -3.8075     0.0000    26.0000 </r>
       <r>    -3.6804     0.0000    26.0000 </r>
       <r>    -3.5533     0.0000    26.0000 </r>
       <r>    -3.4261     0.0000    26.0000 </r>
       <r>    -3.2990     0.0000    26.0000 </r>
       <r>    -3.1719     0.0000    26.0000 </r>
       <r>    -3.0448     0.0000    26.0000 </r>
       <r>    -2.9177     0.0000    26.0000 </r>
       <r>    -2.7906     0.0000    26.0000 </r>
       <r>    -2.6635     0.0000    26.0000 </r>
       <r>    -2.5364     0.0000    26.0000 </r>
       <r>    -2.4093     0.0000    26.0000 </r>
       <r>    -2.2822     0.0000    26.0000 </r>
       <r>    -2.1551     0.0000    26.0000 </r>
       <r>    -2.0280     0.0000    26.0000 </r>
       <r>    -1.9009     0.0000    26.0000 </r>
       <r>    -1.7737     0.0000    26.0000 </r>
       <r>    -1.6466     0.0000    26.0000 </r>
       <r>    -1.5195     0.0000    26.0000 </r>
       <r>    -1.3924     0.0000    26.0000 </r>
       <r>    -1.2653     0.0000    26.0000 </r>
       <r>    -1.1382     0.0000    26.0000 </r>
       <r>    -1.0111     0.0000    26.0000 </r>
       <r>    -0.8840     0.0000    26.0000 </r>
       <r>    -0.7569     0.0000    26.0000 </r>
       <r>    -0.6298     0.0000    26.0000 </r>
       <r>    -0.5027     0.0000    26.0000 </r>
       <r>    -0.3756     0.0000    26.0000 </r>
       <r>    -0.2485     0.0000    26.0000 </r>
       <r>    -0.1214     0.0000    26.0000 </r>
       <r>     0.0058     0.0000    26.0000 </r>
       <r>     0.1329     0.0000    26.0000 </r>
       <r>     0.2600     0.0000    26.0000 </r>
       <r>     0.3871     0.0000    26.0000 </r>
       <r>     0.5142     0.0008    26.0001 </r>
       <r>     0.6413     0.1782    26.0227 </r>
       <r>     0.7684     1.8666    26.2600 </r>
       <r>     0.8955     6.1435    27.0409 </r>
       <r>     1.0226     4.1937    27.5739 </r>
       <r>     1.1497     2.5714    27.9008 </r>
       <r>     1.2768     1.7806    28.1271 </r>
       <r>     1.4039     5.3146    28.8026 </r>
       <r>     1.5310    11.9619    30.3231 </r>
       <r>     1.6582     8.7676    31.4375 </r>
       <r>     1.7853     4.1189    31.9611 </r>
       <r>     1.9124     0.3064    32.0000 </r>
       <r>     2.0395     0.0000    32.0000 </r>
       <r>     2.1666     0.0000    32.0000 </r>
       <r>     2.2937     0.0000    32.0000 </r>
       <r>     2.4208     0.0000    32.0000 </r>
       <r>     2.5479     0.0002    32.0000 </r>
       <r>     2.6750     0.0259    32.0033 </r>
       <r>     2.8021     0.0047    32.0039 </r>
       <r>     2.9292     0.0000    32.0039 </r>
       <r>     3.0563     0.0019    32.0041 </r>
       <r>     3.1834     0.4181    32.0573 </r>
       <r>     3.3106     0.2048    32.0833 </r>
       <r>     3.4377     0.7585    32.1797 </r>
       <r>     3.5648     0.5860    32.2542 </r>
       <r>     3.6919     2.2083    32.5349 </r>
       <r>     3.8190     1.1828    32.6852 </r>
       <r>     3.9461     1.7126    32.9029 </r>
       <r>     4.0732     5.1669    33.5597 </r>
       <r>     4.2003     3.7711    34.0390 </r>
       <r>     4.3274     4.7478    34.6425 </r>
       <r>     4.4545     5.7681    35.3756 </r>
       <r>     4.5816     5.5201    36.0773 </r>
       <r>     4.7087     2.6461    36.4136 </r>
       <r>     4.8358     4.5598    36.9932 </r>
       <r>     4.9630     6.8456    37.8634 </r>
       <r>     5.0901     5.8922    38.6123 </r>
       <r>     5.2172     6.7545    39.4708 </r>
       <r>     5.3443     3.5824    39.9262 </r>
       <r>     5.4714     0.4972    39.9894 </r>
       <r>     5.5985     0.0825    39.9999 </r>
       <r>     5.7256     0.0010    40.0000 </r>
       <r>     5.8527     0.0000    40.0000 </r>
       <r>     5.9798     0.0000    40.0000 </r>
       <r>     6.1069     0.0000    40.0000 </r>
       <r>     6.2340     0.0000    40.0000 </r>
       <r>     6.3611     0.0000    40.0000 </r>
       <r>     6.4882     0.0000    40.0000 </r>
       <r>     6.6154     0.0000    40.0000 </r>
       <r>     6.7425     0.0000    40.0000 </r>
       <r>     6.8696     0.0000    40.0000 </r>
       <r>     6.9967     0.0000    40.0000 </r>
       <r>     7.1238     0.0000    40.0000 </r>
       <r>     7.2509     0.0000    40.0000 </r>
      </set>
     </set>
    </array>
   </total>
  </dos>
 </calculation>
 <structure name="finalpos" >
  <crystal>
   <varray name="basis" >
    <v>       4.38026355      -4.38026355       0.00000000 </v>
    <v>      -4.38026355       0.00000000      -4.38026355 </v>
    <v>       4.38026355       4.38026355       0.00000000 </v>
   </varray>
   <i name="volume">    168.08568240 </i>
   <varray name="rec_basis" >
    <v>       0.11414838      -0.11414838      -0.11414838 </v>
    <v>       0.00000000       0.00000000      -0.22829677 </v>
    <v>       0.11414838       0.11414838      -0.11414838 </v>
   </varray>
  </crystal>
  <varray name="positions" >
   <v>       0.50000046       0.00000000       0.50000046 </v>
   <v>       0.74999897       0.49999931       0.24999966 </v>
   <v>       0.24999966       0.49999931       0.74999897 </v>
   <v>       0.00000000       0.00000000       0.00000000 </v>
  </varray>
 </structure>
</modeling>
