   4   4   0   0
  0.1998038E+02  0.4834961E-09  0.4834961E-09  0.4834961E-09  0.5000000E-15
  1.000000000000000E-004
  CAR 
 unknown system                          
     13.47232511    -45.54801344  301      3.85692829      1.00000000
    -45.548  0.0000E+00  0.0000E+00
    -45.351  0.0000E+00  0.0000E+00
    -45.155  0.0000E+00  0.0000E+00
    -44.958  0.0000E+00  0.0000E+00
    -44.761  0.0000E+00  0.0000E+00
    -44.564  0.0000E+00  0.0000E+00
    -44.368  0.0000E+00  0.0000E+00
    -44.171  0.0000E+00  0.0000E+00
    -43.974  0.0000E+00  0.0000E+00
    -43.777  0.0000E+00  0.0000E+00
    -43.581  0.0000E+00  0.0000E+00
    -43.384  0.0000E+00  0.0000E+00
    -43.187  0.0000E+00  0.0000E+00
    -42.990  0.3100E-02  0.6100E-03
    -42.794  0.1981E+02  0.3898E+01
    -42.597  0.5191E+00  0.4000E+01
    -42.400  0.0000E+00  0.4000E+01
    -42.204  0.0000E+00  0.4000E+01
    -42.007  0.0000E+00  0.4000E+01
    -41.810  0.0000E+00  0.4000E+01
    -41.613  0.0000E+00  0.4000E+01
    -41.417  0.0000E+00  0.4000E+01
    -41.220  0.0000E+00  0.4000E+01
    -41.023  0.0000E+00  0.4000E+01
    -40.826  0.0000E+00  0.4000E+01
    -40.630  0.0000E+00  0.4000E+01
    -40.433  0.0000E+00  0.4000E+01
    -40.236  0.0000E+00  0.4000E+01
    -40.039  0.0000E+00  0.4000E+01
    -39.843  0.0000E+00  0.4000E+01
    -39.646  0.0000E+00  0.4000E+01
    -39.449  0.0000E+00  0.4000E+01
    -39.253  0.0000E+00  0.4000E+01
    -39.056  0.0000E+00  0.4000E+01
    -38.859  0.0000E+00  0.4000E+01
    -38.662  0.0000E+00  0.4000E+01
    -38.466  0.0000E+00  0.4000E+01
    -38.269  0.0000E+00  0.4000E+01
    -38.072  0.0000E+00  0.4000E+01
    -37.875  0.0000E+00  0.4000E+01
    -37.679  0.0000E+00  0.4000E+01
    -37.482  0.0000E+00  0.4000E+01
    -37.285  0.0000E+00  0.4000E+01
    -37.088  0.0000E+00  0.4000E+01
    -36.892  0.0000E+00  0.4000E+01
    -36.695  0.0000E+00  0.4000E+01
    -36.498  0.0000E+00  0.4000E+01
    -36.301  0.0000E+00  0.4000E+01
    -36.105  0.0000E+00  0.4000E+01
    -35.908  0.0000E+00  0.4000E+01
    -35.711  0.0000E+00  0.4000E+01
    -35.515  0.0000E+00  0.4000E+01
    -35.318  0.0000E+00  0.4000E+01
    -35.121  0.0000E+00  0.4000E+01
    -34.924  0.0000E+00  0.4000E+01
    -34.728  0.0000E+00  0.4000E+01
    -34.531  0.0000E+00  0.4000E+01
    -34.334  0.0000E+00  0.4000E+01
    -34.137  0.0000E+00  0.4000E+01
    -33.941  0.0000E+00  0.4000E+01
    -33.744  0.0000E+00  0.4000E+01
    -33.547  0.0000E+00  0.4000E+01
    -33.350  0.0000E+00  0.4000E+01
    -33.154  0.0000E+00  0.4000E+01
    -32.957  0.0000E+00  0.4000E+01
    -32.760  0.0000E+00  0.4000E+01
    -32.564  0.0000E+00  0.4000E+01
    -32.367  0.0000E+00  0.4000E+01
    -32.170  0.0000E+00  0.4000E+01
    -31.973  0.0000E+00  0.4000E+01
    -31.777  0.0000E+00  0.4000E+01
    -31.580  0.0000E+00  0.4000E+01
    -31.383  0.0000E+00  0.4000E+01
    -31.186  0.0000E+00  0.4000E+01
    -30.990  0.0000E+00  0.4000E+01
    -30.793  0.0000E+00  0.4000E+01
    -30.596  0.0000E+00  0.4000E+01
    -30.399  0.0000E+00  0.4000E+01
    -30.203  0.0000E+00  0.4000E+01
    -30.006  0.0000E+00  0.4000E+01
    -29.809  0.0000E+00  0.4000E+01
    -29.613  0.0000E+00  0.4000E+01
    -29.416  0.0000E+00  0.4000E+01
    -29.219  0.0000E+00  0.4000E+01
    -29.022  0.0000E+00  0.4000E+01
    -28.826  0.0000E+00  0.4000E+01
    -28.629  0.0000E+00  0.4000E+01
    -28.432  0.0000E+00  0.4000E+01
    -28.235  0.0000E+00  0.4000E+01
    -28.039  0.0000E+00  0.4000E+01
    -27.842  0.0000E+00  0.4000E+01
    -27.645  0.0000E+00  0.4000E+01
    -27.448  0.0000E+00  0.4000E+01
    -27.252  0.0000E+00  0.4000E+01
    -27.055  0.0000E+00  0.4000E+01
    -26.858  0.0000E+00  0.4000E+01
    -26.662  0.0000E+00  0.4000E+01
    -26.465  0.0000E+00  0.4000E+01
    -26.268  0.0000E+00  0.4000E+01
    -26.071  0.0000E+00  0.4000E+01
    -25.875  0.0000E+00  0.4000E+01
    -25.678  0.0000E+00  0.4000E+01
    -25.481  0.0000E+00  0.4000E+01
    -25.284  0.0000E+00  0.4000E+01
    -25.088  0.0000E+00  0.4000E+01
    -24.891  0.0000E+00  0.4000E+01
    -24.694  0.0000E+00  0.4000E+01
    -24.497  0.0000E+00  0.4000E+01
    -24.301  0.0000E+00  0.4000E+01
    -24.104  0.0000E+00  0.4000E+01
    -23.907  0.0000E+00  0.4000E+01
    -23.710  0.0000E+00  0.4000E+01
    -23.514  0.0000E+00  0.4000E+01
    -23.317  0.0000E+00  0.4000E+01
    -23.120  0.0000E+00  0.4000E+01
    -22.924  0.0000E+00  0.4000E+01
    -22.727  0.0000E+00  0.4000E+01
    -22.530  0.0000E+00  0.4000E+01
    -22.333  0.0000E+00  0.4000E+01
    -22.137  0.0000E+00  0.4000E+01
    -21.940  0.0000E+00  0.4000E+01
    -21.743  0.0000E+00  0.4000E+01
    -21.546  0.0000E+00  0.4000E+01
    -21.350  0.0000E+00  0.4000E+01
    -21.153  0.0000E+00  0.4000E+01
    -20.956  0.1187E-01  0.4002E+01
    -20.759  0.3007E+02  0.9917E+01
    -20.563  0.4207E+00  0.1000E+02
    -20.366  0.0000E+00  0.1000E+02
    -20.169  0.0000E+00  0.1000E+02
    -19.973  0.0000E+00  0.1000E+02
    -19.776  0.0000E+00  0.1000E+02
    -19.579  0.0000E+00  0.1000E+02
    -19.382  0.0000E+00  0.1000E+02
    -19.186  0.0000E+00  0.1000E+02
    -18.989  0.0000E+00  0.1000E+02
    -18.792  0.0000E+00  0.1000E+02
    -18.595  0.0000E+00  0.1000E+02
    -18.399  0.0000E+00  0.1000E+02
    -18.202  0.0000E+00  0.1000E+02
    -18.005  0.0000E+00  0.1000E+02
    -17.808  0.0000E+00  0.1000E+02
    -17.612  0.0000E+00  0.1000E+02
    -17.415  0.0000E+00  0.1000E+02
    -17.218  0.0000E+00  0.1000E+02
    -17.022  0.0000E+00  0.1000E+02
    -16.825  0.0000E+00  0.1000E+02
    -16.628  0.0000E+00  0.1000E+02
    -16.431  0.0000E+00  0.1000E+02
    -16.235  0.0000E+00  0.1000E+02
    -16.038  0.0000E+00  0.1000E+02
    -15.841  0.0000E+00  0.1000E+02
    -15.644  0.0000E+00  0.1000E+02
    -15.448  0.0000E+00  0.1000E+02
    -15.251  0.0000E+00  0.1000E+02
    -15.054  0.0000E+00  0.1000E+02
    -14.857  0.0000E+00  0.1000E+02
    -14.661  0.0000E+00  0.1000E+02
    -14.464  0.0000E+00  0.1000E+02
    -14.267  0.0000E+00  0.1000E+02
    -14.070  0.0000E+00  0.1000E+02
    -13.874  0.0000E+00  0.1000E+02
    -13.677  0.0000E+00  0.1000E+02
    -13.480  0.0000E+00  0.1000E+02
    -13.284  0.0000E+00  0.1000E+02
    -13.087  0.0000E+00  0.1000E+02
    -12.890  0.0000E+00  0.1000E+02
    -12.693  0.0000E+00  0.1000E+02
    -12.497  0.0000E+00  0.1000E+02
    -12.300  0.0000E+00  0.1000E+02
    -12.103  0.0000E+00  0.1000E+02
    -11.906  0.0000E+00  0.1000E+02
    -11.710  0.0000E+00  0.1000E+02
    -11.513  0.0000E+00  0.1000E+02
    -11.316  0.0000E+00  0.1000E+02
    -11.119  0.0000E+00  0.1000E+02
    -10.923  0.0000E+00  0.1000E+02
    -10.726  0.0000E+00  0.1000E+02
    -10.529  0.0000E+00  0.1000E+02
    -10.333  0.0000E+00  0.1000E+02
    -10.136  0.0000E+00  0.1000E+02
     -9.939  0.0000E+00  0.1000E+02
     -9.742  0.0000E+00  0.1000E+02
     -9.546  0.0000E+00  0.1000E+02
     -9.349  0.0000E+00  0.1000E+02
     -9.152  0.0000E+00  0.1000E+02
     -8.955  0.0000E+00  0.1000E+02
     -8.759  0.0000E+00  0.1000E+02
     -8.562  0.0000E+00  0.1000E+02
     -8.365  0.0000E+00  0.1000E+02
     -8.168  0.0000E+00  0.1000E+02
     -7.972  0.0000E+00  0.1000E+02
     -7.775  0.0000E+00  0.1000E+02
     -7.578  0.0000E+00  0.1000E+02
     -7.382  0.0000E+00  0.1000E+02
     -7.185  0.0000E+00  0.1000E+02
     -6.988  0.0000E+00  0.1000E+02
     -6.791  0.0000E+00  0.1000E+02
     -6.595  0.0000E+00  0.1000E+02
     -6.398  0.0000E+00  0.1000E+02
     -6.201  0.0000E+00  0.1000E+02
     -6.004  0.0000E+00  0.1000E+02
     -5.808  0.0000E+00  0.1000E+02
     -5.611  0.8944E-09  0.1000E+02
     -5.414  0.1713E-01  0.1000E+02
     -5.217  0.4859E+00  0.1010E+02
     -5.021  0.1172E+01  0.1033E+02
     -4.824  0.2523E+01  0.1083E+02
     -4.627  0.5461E+01  0.1190E+02
     -4.431  0.5074E+00  0.1200E+02
     -4.234  0.2519E-08  0.1200E+02
     -4.037  0.0000E+00  0.1200E+02
     -3.840  0.0000E+00  0.1200E+02
     -3.644  0.0000E+00  0.1200E+02
     -3.447  0.0000E+00  0.1200E+02
     -3.250  0.0000E+00  0.1200E+02
     -3.053  0.0000E+00  0.1200E+02
     -2.857  0.0000E+00  0.1200E+02
     -2.660  0.0000E+00  0.1200E+02
     -2.463  0.0000E+00  0.1200E+02
     -2.266  0.0000E+00  0.1200E+02
     -2.070  0.0000E+00  0.1200E+02
     -1.873  0.0000E+00  0.1200E+02
     -1.676  0.0000E+00  0.1200E+02
     -1.479  0.0000E+00  0.1200E+02
     -1.283  0.0000E+00  0.1200E+02
     -1.086  0.0000E+00  0.1200E+02
     -0.889  0.0000E+00  0.1200E+02
     -0.693  0.0000E+00  0.1200E+02
     -0.496  0.0000E+00  0.1200E+02
     -0.299  0.2204E-16  0.1200E+02
     -0.102  0.4384E-03  0.1200E+02
      0.094  0.1529E+00  0.1203E+02
      0.291  0.1057E+01  0.1224E+02
      0.488  0.1107E+01  0.1246E+02
      0.685  0.2761E+01  0.1300E+02
      0.881  0.2206E+01  0.1343E+02
      1.078  0.1328E+01  0.1369E+02
      1.275  0.1777E+01  0.1404E+02
      1.472  0.1197E+01  0.1428E+02
      1.668  0.1740E+01  0.1462E+02
      1.865  0.3592E+01  0.1533E+02
      2.062  0.1841E+01  0.1569E+02
      2.258  0.2375E+01  0.1616E+02
      2.455  0.2863E+01  0.1672E+02
      2.652  0.1670E+01  0.1705E+02
      2.849  0.2383E+01  0.1752E+02
      3.045  0.8739E+00  0.1769E+02
      3.242  0.9573E+00  0.1788E+02
      3.439  0.5219E+00  0.1798E+02
      3.636  0.9347E-01  0.1800E+02
      3.832  0.1470E-03  0.1800E+02
      4.029  0.2834E-08  0.1800E+02
      4.226  0.3517E-01  0.1801E+02
      4.423  0.2439E-01  0.1801E+02
      4.619  0.1346E+00  0.1804E+02
      4.816  0.4610E+00  0.1813E+02
      5.013  0.7822E-01  0.1814E+02
      5.209  0.4127E+00  0.1823E+02
      5.406  0.1300E+01  0.1848E+02
      5.603  0.3882E+00  0.1856E+02
      5.800  0.1500E+01  0.1885E+02
      5.996  0.1681E+01  0.1918E+02
      6.193  0.3269E+01  0.1983E+02
      6.390  0.2028E+01  0.2023E+02
      6.587  0.2319E+01  0.2068E+02
      6.783  0.4361E+01  0.2154E+02
      6.980  0.2087E+01  0.2195E+02
      7.177  0.1407E+01  0.2223E+02
      7.374  0.1392E+01  0.2250E+02
      7.570  0.2865E+01  0.2306E+02
      7.767  0.1512E+01  0.2336E+02
      7.964  0.1719E+01  0.2370E+02
      8.160  0.2732E+01  0.2424E+02
      8.357  0.2174E+01  0.2466E+02
      8.554  0.4718E+00  0.2476E+02
      8.751  0.1412E-03  0.2476E+02
      8.947  0.3656E+00  0.2483E+02
      9.144  0.2238E+01  0.2527E+02
      9.341  0.1684E+01  0.2560E+02
      9.538  0.8026E-01  0.2562E+02
      9.734  0.1584E+01  0.2593E+02
      9.931  0.2441E+00  0.2598E+02
     10.128  0.5715E-05  0.2598E+02
     10.325  0.0000E+00  0.2598E+02
     10.521  0.1938E-14  0.2598E+02
     10.718  0.2563E-02  0.2598E+02
     10.915  0.1165E+00  0.2600E+02
     11.112  0.2374E-04  0.2600E+02
     11.308  0.0000E+00  0.2600E+02
     11.505  0.0000E+00  0.2600E+02
     11.702  0.0000E+00  0.2600E+02
     11.898  0.0000E+00  0.2600E+02
     12.095  0.0000E+00  0.2600E+02
     12.292  0.0000E+00  0.2600E+02
     12.489  0.0000E+00  0.2600E+02
     12.685  0.0000E+00  0.2600E+02
     12.882  0.0000E+00  0.2600E+02
     13.079  0.0000E+00  0.2600E+02
     13.276  0.0000E+00  0.2600E+02
     13.472  0.0000E+00  0.2600E+02
