    4    4    1    1
  0.1998038E+02  0.4834960E-09  0.4834960E-09  0.4834960E-09  0.5000000E-15
  1.000000000000000E-004
  CAR 
 unknown system                          
     18     29     13
 
  0.0000000E+00  0.0000000E+00  0.0000000E+00  0.1953125E-02
    1      -42.865271   1.000000
    2      -42.860161   1.000000
    3      -20.836278   1.000000
    4      -20.836273   1.000000
    5      -20.836270   1.000000
    6       -5.421920   1.000000
    7        3.536196   1.000000
    8        3.536210   1.000000
    9        3.536223   1.000000
   10        5.158465   0.000000
   11        6.184930   0.000000
   12        6.184938   0.000000
   13        6.184942   0.000000
 
  0.1250000E+00  0.0000000E+00  0.0000000E+00  0.1562500E-01
    1      -42.865122   1.000000
    2      -42.860370   1.000000
    3      -20.836666   1.000000
    4      -20.836324   1.000000
    5      -20.836317   1.000000
    6       -5.347964   1.000000
    7        2.568874   1.000000
    8        3.386139   1.000000
    9        3.386157   1.000000
   10        5.583392   0.000000
   11        6.436425   0.000000
   12        6.436436   0.000000
   13        6.876279   0.000000
 
  0.2500000E+00  0.0000000E+00  0.0000000E+00  0.1562500E-01
    1      -42.864607   1.000000
    2      -42.860883   1.000000
    3      -20.837610   1.000000
    4      -20.836433   1.000000
    5      -20.836427   1.000000
    6       -5.151138   1.000000
    7        1.277684   1.000000
    8        3.106214   1.000000
    9        3.106233   1.000000
   10        5.755257   0.000000
   11        6.681555   0.000000
   12        6.681579   0.000000
   13        8.218474   0.000000
 
  0.3750000E+00  0.0000000E+00  0.0000000E+00  0.1562500E-01
    1      -42.863757   1.000000
    2      -42.861718   1.000000
    3      -20.838562   1.000000
    4      -20.836543   1.000000
    5      -20.836537   1.000000
    6       -4.919720   1.000000
    7        0.338657   1.000000
    8        2.891963   1.000000
    9        2.891983   1.000000
   10        5.836975   0.000000
   11        6.497059   0.000000
   12        6.497089   0.000000
   13        8.861590   0.000000
 
  0.5000000E+00  0.0000000E+00  0.0000000E+00  0.7812500E-02
    1      -42.862721   1.000000
    2      -42.862712   1.000000
    3      -20.838954   1.000000
    4      -20.836590   1.000000
    5      -20.836584   1.000000
    6       -4.809663   1.000000
    7       -0.012498   1.000000
    8        2.815410   1.000000
    9        2.815430   1.000000
   10        5.865513   0.000000
   11        6.381124   0.000000
   12        6.381155   0.000000
   13        8.967183   0.000000
 
  0.0000000E+00  0.1250000E+00  0.0000000E+00  0.1171875E-01
    1      -42.865071   1.000000
    2      -42.860429   1.000000
    3      -20.836593   1.000000
    4      -20.836438   1.000000
    5      -20.836436   1.000000
    6       -5.323881   1.000000
    7        2.697500   1.000000
    8        3.090206   1.000000
    9        3.090207   1.000000
   10        5.979089   0.000000
   11        6.163868   0.000000
   12        6.862310   0.000000
   13        6.862314   0.000000
 
  0.1250000E+00  0.1250000E+00  0.0000000E+00  0.4687500E-01
    1      -42.864680   1.000000
    2      -42.860816   1.000000
    3      -20.837301   1.000000
    4      -20.836600   1.000000
    5      -20.836505   1.000000
    6       -5.169035   1.000000
    7        1.655337   1.000000
    8        2.768099   1.000000
    9        2.920280   1.000000
   10        6.041539   0.000000
   11        6.443795   0.000000
   12        7.189237   0.000000
   13        7.318862   0.000000
 
  0.2500000E+00  0.1250000E+00  0.0000000E+00  0.4687500E-01
    1      -42.863969   1.000000
    2      -42.861512   1.000000
    3      -20.838222   1.000000
    4      -20.836708   1.000000
    5      -20.836643   1.000000
    6       -4.946893   1.000000
    7        0.660844   1.000000
    8        2.586310   1.000000
    9        2.641261   1.000000
   10        5.935256   0.000000
   11        6.698061   0.000000
   12        7.179376   0.000000
   13        7.728191   0.000000
 
  0.3750000E+00  0.1250000E+00  0.0000000E+00  0.4687500E-01
    1      -42.863060   1.000000
    2      -42.862404   1.000000
    3      -20.838779   1.000000
    4      -20.836806   1.000000
    5      -20.836704   1.000000
    6       -4.788743   1.000000
    7        0.130231   1.000000
    8        2.379625   1.000000
    9        2.593842   1.000000
   10        5.937917   0.000000
   11        6.669895   0.000000
   12        6.873748   0.000000
   13        8.996620   0.000000
 
  0.5000000E+00  0.1250000E+00  0.0000000E+00  0.4687500E-01
    1      -42.863353   1.000000
    2      -42.862113   1.000000
    3      -20.838651   1.000000
    4      -20.836887   1.000000
    5      -20.836585   1.000000
    6       -4.824784   1.000000
    7        0.239365   1.000000
    8        2.260415   1.000000
    9        2.782966   1.000000
   10        6.068353   0.000000
   11        6.701290   0.000000
   12        6.750492   0.000000
   13        9.174190   0.000000
 
 -0.3750000E+00  0.1250000E+00  0.0000000E+00  0.4687500E-01
    1      -42.864212   1.000000
    2      -42.861273   1.000000
    3      -20.837936   1.000000
    4      -20.836823   1.000000
    5      -20.836425   1.000000
    6       -5.022301   1.000000
    7        0.934105   1.000000
    8        2.346812   1.000000
    9        3.095506   1.000000
   10        6.121396   0.000000
   11        6.804777   0.000000
   12        6.940848   0.000000
   13        8.051224   0.000000
 
 -0.2500000E+00  0.1250000E+00  0.0000000E+00  0.2343750E-01
    1      -42.864833   1.000000
    2      -42.860634   1.000000
    3      -20.837102   1.000000
    4      -20.836599   1.000000
    5      -20.836314   1.000000
    6       -5.233074   1.000000
    7        1.901331   1.000000
    8        2.726891   1.000000
    9        3.381726   1.000000
   10        5.934918   0.000000
   11        6.563772   0.000000
   12        7.057628   0.000000
   13        7.261831   0.000000
 
  0.0000000E+00  0.2500000E+00  0.0000000E+00  0.1171875E-01
    1      -42.864482   1.000000
    2      -42.860991   1.000000
    3      -20.837354   1.000000
    4      -20.836836   1.000000
    5      -20.836834   1.000000
    6       -5.068890   1.000000
    7        1.635521   1.000000
    8        2.400449   1.000000
    9        2.400451   1.000000
   10        5.546765   0.000000
   11        6.116232   0.000000
   12        8.166087   0.000000
   13        8.166088   0.000000
 
  0.1250000E+00  0.2500000E+00  0.0000000E+00  0.4687500E-01
    1      -42.864016   1.000000
    2      -42.861434   1.000000
    3      -20.837954   1.000000
    4      -20.837019   1.000000
    5      -20.836998   1.000000
    6       -4.892229   1.000000
    7        0.999216   1.000000
    8        2.092800   1.000000
    9        2.186546   1.000000
   10        5.283438   0.000000
   11        6.419490   0.000000
   12        8.204521   0.000000
   13        8.404190   0.000000
 
  0.2500000E+00  0.2500000E+00  0.0000000E+00  0.4687500E-01
    1      -42.863341   1.000000
    2      -42.862115   1.000000
    3      -20.838405   1.000000
    4      -20.837288   1.000000
    5      -20.836993   1.000000
    6       -4.734786   1.000000
    7        0.503197   1.000000
    8        1.685253   1.000000
    9        2.183444   1.000000
   10        5.385175   0.000000
   11        7.421010   0.000000
   12        8.059997   0.000000
   13        8.082056   0.000000
 
  0.3750000E+00  0.2500000E+00  0.0000000E+00  0.4687500E-01
    1      -42.862865   1.000000
    2      -42.862618   1.000000
    3      -20.838410   1.000000
    4      -20.837520   1.000000
    5      -20.836824   1.000000
    6       -4.710655   1.000000
    7        0.420541   1.000000
    8        1.436415   1.000000
    9        2.390611   1.000000
   10        5.658486   0.000000
   11        7.816786   0.000000
   12        7.862525   0.000000
   13        8.973754   0.000000
 
  0.5000000E+00  0.2500000E+00  0.0000000E+00  0.2343750E-01
    1      -42.863590   1.000000
    2      -42.861881   1.000000
    3      -20.838168   1.000000
    4      -20.837371   1.000000
    5      -20.836589   1.000000
    6       -4.839611   1.000000
    7        0.656913   1.000000
    8        1.611277   1.000000
    9        2.752111   1.000000
   10        6.028022   0.000000
   11        7.509760   0.000000
   12        7.693682   0.000000
   13        7.848091   0.000000
 
  0.0000000E+00  0.3750000E+00  0.0000000E+00  0.1171875E-01
    1      -42.863891   1.000000
    2      -42.861568   1.000000
    3      -20.838121   1.000000
    4      -20.837236   1.000000
    5      -20.837234   1.000000
    6       -4.780984   1.000000
    7        0.899975   1.000000
    8        1.921826   1.000000
    9        1.921829   1.000000
   10        4.582029   0.000000
   11        6.072136   0.000000
   12        9.553742   0.000000
   13        9.553744   0.000000
 
  0.1250000E+00  0.3750000E+00  0.0000000E+00  0.4687500E-01
    1      -42.863555   1.000000
    2      -42.861898   1.000000
    3      -20.838315   1.000000
    4      -20.837484   1.000000
    5      -20.837281   1.000000
    6       -4.675416   1.000000
    7        0.720142   1.000000
    8        1.505552   1.000000
    9        1.868785   1.000000
   10        4.671705   0.000000
   11        6.369326   0.000000
   12        9.638387   0.000000
   13        9.660564   0.000000
 
  0.2500000E+00  0.3750000E+00  0.0000000E+00  0.2343750E-01
    1      -42.863097   1.000000
    2      -42.862334   1.000000
    3      -20.838129   1.000000
    4      -20.837905   1.000000
    5      -20.837109   1.000000
    6       -4.645330   1.000000
    7        0.879014   1.000000
    8        0.879966   1.000000
    9        2.038345   1.000000
   10        5.153004   0.000000
   11        7.377182   0.000000
   12        9.144509   0.000000
   13        9.206625   0.000000
 
  0.0000000E+00  0.5000000E+00  0.0000000E+00  0.5859375E-02
    1      -42.863696   1.000000
    2      -42.861783   1.000000
    3      -20.838441   1.000000
    4      -20.837404   1.000000
    5      -20.837402   1.000000
    6       -4.649042   1.000000
    7        0.632375   1.000000
    8        1.755800   1.000000
    9        1.755803   1.000000
   10        4.217718   0.000000
   11        6.054947   0.000000
   12       10.789582   0.000000
   13       10.789582   0.000000
 
  0.1250000E+00  0.1250000E+00  0.1250000E+00  0.4687500E-01
    1      -42.864241   1.000000
    2      -42.861250   1.000000
    3      -20.837763   1.000000
    4      -20.836992   1.000000
    5      -20.836596   1.000000
    6       -5.001198   1.000000
    7        1.140380   1.000000
    8        2.118960   1.000000
    9        2.746718   1.000000
   10        6.094809   0.000000
   11        6.655369   0.000000
   12        6.983893   0.000000
   13        8.217727   0.000000
 
  0.2500000E+00  0.1250000E+00  0.1250000E+00  0.9375000E-01
    1      -42.863549   1.000000
    2      -42.861927   1.000000
    3      -20.838315   1.000000
    4      -20.837219   1.000000
    5      -20.836758   1.000000
    6       -4.809468   1.000000
    7        0.554614   1.000000
    8        1.818725   1.000000
    9        2.432336   1.000000
   10        6.188943   0.000000
   11        6.651726   0.000000
   12        7.544341   0.000000
   13        8.295747   0.000000
 
  0.3750000E+00  0.1250000E+00  0.1250000E+00  0.4687500E-01
    1      -42.862748   1.000000
    2      -42.862741   1.000000
    3      -20.838570   1.000000
    4      -20.837251   1.000000
    5      -20.836866   1.000000
    6       -4.720865   1.000000
    7        0.298659   1.000000
    8        1.774089   1.000000
    9        2.263335   1.000000
   10        6.322085   0.000000
   11        6.395732   0.000000
   12        8.114457   0.000000
   13        9.061856   0.000000
 
  0.1250000E+00  0.2500000E+00  0.1250000E+00  0.4687500E-01
    1      -42.863641   1.000000
    2      -42.861869   1.000000
    3      -20.838188   1.000000
    4      -20.837389   1.000000
    5      -20.837117   1.000000
    6       -4.748492   1.000000
    7        0.777520   1.000000
    8        1.680394   1.000000
    9        1.895319   1.000000
   10        5.320487   0.000000
   11        6.617715   0.000000
   12        7.988799   0.000000
   13        9.664432   0.000000
 
  0.2500000E+00  0.2500000E+00  0.1250000E+00  0.9375000E-01
    1      -42.863091   1.000000
    2      -42.862388   1.000000
    3      -20.838214   1.000000
    4      -20.837684   1.000000
    5      -20.837184   1.000000
    6       -4.657280   1.000000
    7        0.691378   1.000000
    8        1.268104   1.000000
    9        1.779358   1.000000
   10        5.759638   0.000000
   11        7.497992   0.000000
   12        7.579464   0.000000
   13        9.238007   0.000000
 
  0.3750000E+00  0.2500000E+00  0.1250000E+00  0.4687500E-01
    1      -42.862978   1.000000
    2      -42.862495   1.000000
    3      -20.838168   1.000000
    4      -20.837759   1.000000
    5      -20.836991   1.000000
    6       -4.684836   1.000000
    7        0.643159   1.000000
    8        1.228661   1.000000
    9        2.033013   1.000000
   10        6.199033   0.000000
   11        7.028225   0.000000
   12        7.959156   0.000000
   13        9.017927   0.000000
 
  0.1250000E+00  0.3750000E+00  0.1250000E+00  0.2343750E-01
    1      -42.863363   1.000000
    2      -42.862113   1.000000
    3      -20.838287   1.000000
    4      -20.837552   1.000000
    5      -20.837406   1.000000
    6       -4.636741   1.000000
    7        0.754406   1.000000
    8        1.459212   1.000000
    9        1.526321   1.000000
   10        5.028471   0.000000
   11        6.598276   0.000000
   12        8.990949   0.000000
   13        9.787375   0.000000
 
  0.2500000E+00  0.2500000E+00  0.2500000E+00  0.1171875E-01
    1      -42.862758   1.000000
    2      -42.862758   1.000000
    3      -20.837919   1.000000
    4      -20.837918   1.000000
    5      -20.837408   1.000000
    6       -4.624295   1.000000
    7        1.092136   1.000000
    8        1.092137   1.000000
    9        1.234340   1.000000
   10        6.653094   0.000000
   11        6.939046   0.000000
   12        7.963692   0.000000
   13        7.963693   0.000000
