       N       E                     dE             d eps       ncg     rms          rms(c)
DAV:   1     0.924322945581E+02    0.92432E+02   -0.88075E+03   754   0.136E+03
DAV:   2    -0.972621990417E+00   -0.93405E+02   -0.91087E+02   814   0.316E+02
DAV:   3    -0.113146215677E+02   -0.10342E+02   -0.10251E+02  1458   0.745E+01
DAV:   4    -0.117396218351E+02   -0.42500E+00   -0.42361E+00   990   0.173E+01
DAV:   5    -0.117827295193E+02   -0.43108E-01   -0.43100E-01  1220   0.390E+00    0.297E+00
DAV:   6    -0.116414009662E+02    0.14133E+00   -0.15408E-01   991   0.313E+00    0.174E+00
DAV:   7    -0.115943084897E+02    0.47092E-01   -0.12535E-01  1100   0.234E+00    0.485E-01
DAV:   8    -0.115912101603E+02    0.30983E-02   -0.11594E-02   919   0.997E-01    0.923E-02
DAV:   9    -0.115911831973E+02    0.26963E-04   -0.36772E-04  1026   0.190E-01    0.486E-02
DAV:  10    -0.115911528936E+02    0.30304E-04   -0.62383E-05  1127   0.935E-02    0.417E-03
DAV:  11    -0.115911538207E+02   -0.92713E-06   -0.62162E-06  1135   0.296E-02    0.220E-03
DAV:  12    -0.115911542981E+02   -0.47740E-06   -0.24658E-07   962   0.508E-03    0.905E-04
DAV:  13    -0.115911544728E+02   -0.17469E-06   -0.31521E-08   919   0.165E-03    0.564E-04
DAV:  14    -0.115911547244E+02   -0.25155E-06   -0.21896E-09   552   0.467E-04    0.928E-05
DAV:  15    -0.115911546772E+02    0.47182E-07   -0.51495E-10   492   0.276E-04    0.831E-05
DAV:  16    -0.115911546211E+02    0.56062E-07   -0.17275E-10   457   0.186E-04    0.138E-05
DAV:  17    -0.115911546265E+02   -0.53919E-08   -0.88333E-11   432   0.126E-04
   1 F= -.11591155E+02 E0= -.11591155E+02  d E =-.223636E-21
