 vasp.5.4.4.18Apr17-6-g9f103f2a35 (build Jun 23 2019 17:35:09) complex          
  
 executed on             LinuxIFC date 2020.01.15  15:43:03
 running on   28 total cores
 distrk:  each k-point on    7 cores,    4 groups
 distr:  one band on NCORES_PER_BAND=   7 cores,    1 groups


--------------------------------------------------------------------------------------------------------


 INCAR:
 POTCAR:    PAW_PBE Li_sv 10Sep2004               
 POTCAR:    PAW_PBE Na_pv 19Sep2006               
 POTCAR:    PAW_PBE Sb 06Sep2000                  

 ----------------------------------------------------------------------------- 
|                                                                             |
|           W    W    AA    RRRRR   N    N  II  N    N   GGGG   !!!           |
|           W    W   A  A   R    R  NN   N  II  NN   N  G    G  !!!           |
|           W    W  A    A  R    R  N N  N  II  N N  N  G       !!!           |
|           W WW W  AAAAAA  RRRRR   N  N N  II  N  N N  G  GGG   !            |
|           WW  WW  A    A  R   R   N   NN  II  N   NN  G    G                |
|           W    W  A    A  R    R  N    N  II  N    N   GGGG   !!!           |
|                                                                             |
|      You have enabled k-point parallelism (KPAR>1).                         |
|      This developmental code was originally  written by Paul Kent at ORNL,  |
|      and carefully double checked in Vienna.                                |
|      GW as well as linear response parallelism added by Martijn Marsman     |
|      and Georg Kresse.                                                      |
|      Carefully verify results versus KPAR=1.                                |
|      Report problems to Paul Kent and Vienna.                               |
|                                                                             |
 ----------------------------------------------------------------------------- 

 POTCAR:    PAW_PBE Li_sv 10Sep2004               
   VRHFIN =Li: 1s2s2p                                                           
   LEXCH  = PE                                                                  
   EATOM  =   202.7858 eV,   14.9043 Ry                                         
                                                                                
   TITEL  = PAW_PBE Li_sv 10Sep2004                                             
   LULTRA =        F    use ultrasoft PP ?                                      
   IUNSCR =        0    unscreen: 0-lin 1-nonlin 2-no                           
   RPACOR =    0.000    partial core radius                                     
   POMASS =    7.010; ZVAL   =    3.000    mass and valenz                      
   RCORE  =    1.700    outmost cutoff radius                                   
   RWIGS  =    2.050; RWIGS  =    1.085    wigner-seitz radius (au A)           
   ENMAX  =  499.034; ENMIN  =  374.276 eV                                      
   ICORE  =        2    local potential                                         
   LCOR   =        T    correct aug charges                                     
   LPAW   =        T    paw PP                                                  
   EAUG   =  628.945                                                            
   RMAX   =    1.732    core radius for proj-oper                               
   RAUG   =    1.300    factor for augmentation sphere                          
   RDEP   =    1.728    radius for radial grids                                 
   RDEPT  =    1.329    core radius for aug-charge                              
                                                                                
   Atomic configuration                                                         
    4 entries                                                                   
     n  l   j            E        occ.                                          
     1  0  0.50       -51.8549   2.0000                                         
     2  0  0.50        -2.8742   1.0000                                         
     2  1  0.50        -1.3606   0.0000                                         
     3  2  1.50        -1.3606   0.0000                                         
   Description                                                                  
     l       E           TYP  RCUT    TYP  RCUT                                 
     0    -51.8548813     23  1.400                                             
     0     -2.8742052     23  1.700                                             
     1     -1.3605826     23  1.400                                             
     2     -1.3605826     23  1.400                                             
  local pseudopotential read in
  atomic valenz-charges read in
  non local Contribution for L=           0  read in
    real space projection operators read in
  non local Contribution for L=           0  read in
    real space projection operators read in
  non local Contribution for L=           1  read in
    real space projection operators read in
    PAW grid and wavefunctions read in
 
   number of l-projection  operators is LMAX  =           3
   number of lm-projection operators is LMMAX =           5
 
 POTCAR:    PAW_PBE Na_pv 19Sep2006               
   VRHFIN =Na: p6s1                                                             
   LEXCH  = PE                                                                  
   EATOM  =   766.0439 eV,   56.3026 Ry                                         
                                                                                
   TITEL  = PAW_PBE Na_pv 19Sep2006                                             
   LULTRA =        F    use ultrasoft PP ?                                      
   IUNSCR =        1    unscreen: 0-lin 1-nonlin 2-no                           
   RPACOR =    1.800    partial core radius                                     
   POMASS =   22.990; ZVAL   =    7.000    mass and valenz                      
   RCORE  =    2.200    outmost cutoff radius                                   
   RWIGS  =    2.200; RWIGS  =    1.164    wigner-seitz radius (au A)           
   ENMAX  =  259.561; ENMIN  =  194.671 eV                                      
   ICORE  =        2    local potential                                         
   LCOR   =        T    correct aug charges                                     
   LPAW   =        T    paw PP                                                  
   EAUG   =  368.056                                                            
   DEXC   =    0.000                                                            
   RMAX   =    2.245    core radius for proj-oper                               
   RAUG   =    1.300    factor for augmentation sphere                          
   RDEP   =    2.259    radius for radial grids                                 
   RDEPT  =    1.738    core radius for aug-charge                              
                                                                                
   Atomic configuration                                                         
    5 entries                                                                   
     n  l   j            E        occ.                                          
     1  0  0.50     -1033.6933   2.0000                                         
     2  0  0.50       -56.7526   2.0000                                         
     2  1  1.50       -28.6721   6.0000                                         
     3  0  0.50        -2.7440   1.0000                                         
     3  2  1.50        -1.3606   0.0000                                         
   Description                                                                  
     l       E           TYP  RCUT    TYP  RCUT                                 
     1    -28.6720912     23  2.000                                             
     1      6.8029130     23  2.000                                             
     0     -2.7439560     23  2.200                                             
     0     34.0145650     23  2.200                                             
     2     -1.3605826     23  2.200                                             
  local pseudopotential read in
  partial core-charges read in
  partial kinetic energy density read in
  atomic valenz-charges read in
  non local Contribution for L=           1  read in
    real space projection operators read in
  non local Contribution for L=           1  read in
    real space projection operators read in
  non local Contribution for L=           0  read in
    real space projection operators read in
  non local Contribution for L=           0  read in
    real space projection operators read in
    PAW grid and wavefunctions read in
 
   number of l-projection  operators is LMAX  =           4
   number of lm-projection operators is LMMAX =           8
 
 POTCAR:    PAW_PBE Sb 06Sep2000                  
   VRHFIN =Sb: s2p3                                                             
   LEXCH  = PE                                                                  
   EATOM  =   149.9515 eV,   11.0211 Ry                                         
                                                                                
   TITEL  = PAW_PBE Sb 06Sep2000                                                
   LULTRA =        F    use ultrasoft PP ?                                      
   IUNSCR =        1    unscreen: 0-lin 1-nonlin 2-no                           
   RPACOR =    2.200    partial core radius                                     
   POMASS =  121.750; ZVAL   =    5.000    mass and valenz                      
   RCORE  =    2.300    outmost cutoff radius                                   
   RWIGS  =    2.980; RWIGS  =    1.577    wigner-seitz radius (au A)           
   ENMAX  =  172.069; ENMIN  =  129.052 eV                                      
   ICORE  =        3    local potential                                         
   LCOR   =        T    correct aug charges                                     
   LPAW   =        T    paw PP                                                  
   EAUG   =  380.513                                                            
   DEXC   =    0.000                                                            
   RMAX   =    2.346    core radius for proj-oper                               
   RAUG   =    1.300    factor for augmentation sphere                          
   RDEP   =    2.360    radius for radial grids                                 
   RDEPT  =    2.192    core radius for aug-charge                              
                                                                                
   Atomic configuration                                                         
   13 entries                                                                   
     n  l   j            E        occ.                                          
     1  0  0.50    -30298.2797   2.0000                                         
     2  0  0.50     -4610.2252   2.0000                                         
     2  1  1.50     -4138.3407   6.0000                                         
     3  0  0.50      -903.8815   2.0000                                         
     3  1  1.50      -750.1337   6.0000                                         
     3  2  2.50      -515.7092  10.0000                                         
     4  0  0.50      -148.8034   2.0000                                         
     4  1  1.50      -101.7581   6.0000                                         
     4  2  2.50       -33.5048  10.0000                                         
     5  0  0.50       -12.8298   2.0000                                         
     5  1  0.50        -4.8276   3.0000                                         
     5  2  1.50        -4.0817   0.0000                                         
     4  3  2.50        -4.0817   0.0000                                         
   Description                                                                  
     l       E           TYP  RCUT    TYP  RCUT                                 
     0    -12.8297861     23  2.300                                             
     0     13.6058260     23  2.300                                             
     1     -4.8275512     23  2.300                                             
     1     -0.7245443     23  2.300                                             
     2     -4.0817478     23  2.300                                             
     3     -1.3605826     23  2.300                                             
  local pseudopotential read in
  partial core-charges read in
  partial kinetic energy density read in
  atomic valenz-charges read in
  non local Contribution for L=           0  read in
    real space projection operators read in
  non local Contribution for L=           0  read in
    real space projection operators read in
  non local Contribution for L=           1  read in
    real space projection operators read in
  non local Contribution for L=           1  read in
    real space projection operators read in
  non local Contribution for L=           2  read in
    real space projection operators read in
    PAW grid and wavefunctions read in
 
   number of l-projection  operators is LMAX  =           5
   number of lm-projection operators is LMMAX =          13
 
  PAW_PBE Li_sv 10Sep2004               :
 energy of atom  1       EATOM= -202.7858
 kinetic energy error for atom=    0.0130 (will be added to EATOM!!)
  PAW_PBE Na_pv 19Sep2006               :
 energy of atom  2       EATOM= -766.0439
 kinetic energy error for atom=    0.0019 (will be added to EATOM!!)
  PAW_PBE Sb 06Sep2000                  :
 energy of atom  3       EATOM= -149.9515
 kinetic energy error for atom=    0.0005 (will be added to EATOM!!)
 
 
 POSCAR: Na Sb Li                                
  positions in direct lattice
  velocities in cartesian coordinates
 exchange correlation table for  LEXCH =        8
   RHO(1)=    0.500       N(1)  =     2000
   RHO(2)=  100.500       N(2)  =     4000
 


--------------------------------------------------------------------------------------------------------


 ion  position               nearest neighbor table
   1  0.750  0.500  0.250-   4 2.96   4 2.96   4 2.96   4 2.96
   2  0.250  0.500  0.750-   4 2.96   4 2.96   4 2.96   4 2.96
   3  0.500  0.000  0.500-
   4  0.000  0.000  0.000-   1 2.96   2 2.96   1 2.96   2 2.96   1 2.96   2 2.96   1 2.96   2 2.96

 
  LATTYP: Found a face centered cubic cell.
 ALAT       =     6.8376666847
  
  Lattice vectors:
  
 A1 = (  -3.4188333423,   0.0000000000,  -3.4188333423)
 A2 = (   0.0000000000,  -3.4188333423,  -3.4188333423)
 A3 = (  -3.4188333423,  -3.4188333423,   0.0000000000)


Analysis of symmetry for initial positions (statically):
=====================================================================
 Subroutine PRICEL returns:
 Original cell was already a primitive cell.
 

 Routine SETGRP: Setting up the symmetry group for a 
 face centered cubic supercell.


 Subroutine GETGRP returns: Found 48 space group operations
 (whereof 48 operations were pure point group operations)
 out of a pool of 48 trial point group operations.


The static configuration has the point symmetry O_h .


Analysis of symmetry for dynamics (positions and initial velocities):
=====================================================================
 Subroutine PRICEL returns:
 Original cell was already a primitive cell.
 

 Routine SETGRP: Setting up the symmetry group for a 
 face centered cubic supercell.


 Subroutine GETGRP returns: Found 48 space group operations
 (whereof 48 operations were pure point group operations)
 out of a pool of 48 trial point group operations.


The dynamic configuration has the point symmetry O_h .


 Subroutine INISYM returns: Found 48 space group operations
 (whereof 48 operations are pure point group operations),
 and found     1 'primitive' translations

 
 
 KPOINTS: KPOINTS                                 

Automatic generation of k-mesh.
Space group operators:
 irot       det(A)        alpha          n_x          n_y          n_z        tau_x        tau_y        tau_z
    1     1.000000     0.000001     1.000000     0.000000     0.000000     0.000000     0.000000     0.000000
    2    -1.000000     0.000001     1.000000     0.000000     0.000000     0.000000     0.000000     0.000000
    3     1.000000   120.000000     0.577350     0.577350     0.577350     0.000000     0.000000     0.000000
    4    -1.000000   120.000000     0.577350     0.577350     0.577350     0.000000     0.000000     0.000000
    5     1.000000   120.000000    -0.577350    -0.577350    -0.577350     0.000000     0.000000     0.000000
    6    -1.000000   120.000000    -0.577350    -0.577350    -0.577350     0.000000     0.000000     0.000000
    7     1.000000    90.000000     0.000000     0.000000     1.000000     0.000000     0.000000     0.000000
    8    -1.000000    90.000000     0.000000     0.000000     1.000000     0.000000     0.000000     0.000000
    9     1.000000   180.000000     0.707107     0.000000     0.707107     0.000000     0.000000     0.000000
   10    -1.000000   180.000000     0.707107     0.000000     0.707107     0.000000     0.000000     0.000000
   11     1.000000    90.000000    -1.000000     0.000000     0.000000     0.000000     0.000000     0.000000
   12    -1.000000    90.000000    -1.000000     0.000000     0.000000     0.000000     0.000000     0.000000
   13     1.000000   180.000000     0.000000     0.000000     1.000000     0.000000     0.000000     0.000000
   14    -1.000000   180.000000     0.000000     0.000000     1.000000     0.000000     0.000000     0.000000
   15     1.000000   120.000000    -0.577350     0.577350    -0.577350     0.000000     0.000000     0.000000
   16    -1.000000   120.000000    -0.577350     0.577350    -0.577350     0.000000     0.000000     0.000000
   17     1.000000   120.000000    -0.577350     0.577350     0.577350     0.000000     0.000000     0.000000
   18    -1.000000   120.000000    -0.577350     0.577350     0.577350     0.000000     0.000000     0.000000
   19     1.000000    90.000000     0.000000     0.000000    -1.000000     0.000000     0.000000     0.000000
   20    -1.000000    90.000000     0.000000     0.000000    -1.000000     0.000000     0.000000     0.000000
   21     1.000000    90.000000     0.000000     1.000000     0.000000     0.000000     0.000000     0.000000
   22    -1.000000    90.000000     0.000000     1.000000     0.000000     0.000000     0.000000     0.000000
   23     1.000000   180.000000     0.000000     0.707107     0.707107     0.000000     0.000000     0.000000
   24    -1.000000   180.000000     0.000000     0.707107     0.707107     0.000000     0.000000     0.000000
   25     1.000000   120.000000     0.577350    -0.577350    -0.577350     0.000000     0.000000     0.000000
   26    -1.000000   120.000000     0.577350    -0.577350    -0.577350     0.000000     0.000000     0.000000
   27     1.000000   120.000000     0.577350     0.577350    -0.577350     0.000000     0.000000     0.000000
   28    -1.000000   120.000000     0.577350     0.577350    -0.577350     0.000000     0.000000     0.000000
   29     1.000000   180.000000     0.000000     1.000000     0.000000     0.000000     0.000000     0.000000
   30    -1.000000   180.000000     0.000000     1.000000     0.000000     0.000000     0.000000     0.000000
   31     1.000000    90.000000     1.000000     0.000000     0.000000     0.000000     0.000000     0.000000
   32    -1.000000    90.000000     1.000000     0.000000     0.000000     0.000000     0.000000     0.000000
   33     1.000000   180.000000     0.707107     0.707107     0.000000     0.000000     0.000000     0.000000
   34    -1.000000   180.000000     0.707107     0.707107     0.000000     0.000000     0.000000     0.000000
   35     1.000000    90.000000     0.000000    -1.000000     0.000000     0.000000     0.000000     0.000000
   36    -1.000000    90.000000     0.000000    -1.000000     0.000000     0.000000     0.000000     0.000000
   37     1.000000   120.000000     0.577350    -0.577350     0.577350     0.000000     0.000000     0.000000
   38    -1.000000   120.000000     0.577350    -0.577350     0.577350     0.000000     0.000000     0.000000
   39     1.000000   180.000000     1.000000     0.000000     0.000000     0.000000     0.000000     0.000000
   40    -1.000000   180.000000     1.000000     0.000000     0.000000     0.000000     0.000000     0.000000
   41     1.000000   120.000000    -0.577350    -0.577350     0.577350     0.000000     0.000000     0.000000
   42    -1.000000   120.000000    -0.577350    -0.577350     0.577350     0.000000     0.000000     0.000000
   43     1.000000   180.000000     0.707107     0.000000    -0.707107     0.000000     0.000000     0.000000
   44    -1.000000   180.000000     0.707107     0.000000    -0.707107     0.000000     0.000000     0.000000
   45     1.000000   180.000000     0.707107    -0.707107     0.000000     0.000000     0.000000     0.000000
   46    -1.000000   180.000000     0.707107    -0.707107     0.000000     0.000000     0.000000     0.000000
   47     1.000000   180.000000     0.000000    -0.707107     0.707107     0.000000     0.000000     0.000000
   48    -1.000000   180.000000     0.000000    -0.707107     0.707107     0.000000     0.000000     0.000000
 
 Subroutine IBZKPT returns following result:
 ===========================================
 
 Found     29 irreducible k-points:
 
 Following reciprocal coordinates:
            Coordinates               Weight
  0.000000  0.000000  0.000000      1.000000
  0.125000  0.000000  0.000000      8.000000
  0.250000  0.000000  0.000000      8.000000
  0.375000  0.000000  0.000000      8.000000
  0.500000  0.000000  0.000000      4.000000
  0.000000  0.125000  0.000000      6.000000
  0.125000  0.125000  0.000000     24.000000
  0.250000  0.125000  0.000000     24.000000
  0.375000  0.125000  0.000000     24.000000
  0.500000  0.125000  0.000000     24.000000
 -0.375000  0.125000  0.000000     24.000000
 -0.250000  0.125000  0.000000     12.000000
  0.000000  0.250000  0.000000      6.000000
  0.125000  0.250000  0.000000     24.000000
  0.250000  0.250000  0.000000     24.000000
  0.375000  0.250000  0.000000     24.000000
  0.500000  0.250000  0.000000     12.000000
  0.000000  0.375000  0.000000      6.000000
  0.125000  0.375000  0.000000     24.000000
  0.250000  0.375000  0.000000     12.000000
  0.000000  0.500000  0.000000      3.000000
  0.125000  0.125000  0.125000     24.000000
  0.250000  0.125000  0.125000     48.000000
  0.375000  0.125000  0.125000     24.000000
  0.125000  0.250000  0.125000     24.000000
  0.250000  0.250000  0.125000     48.000000
  0.375000  0.250000  0.125000     24.000000
  0.125000  0.375000  0.125000     12.000000
  0.250000  0.250000  0.250000      6.000000
 
 Following cartesian coordinates:
            Coordinates               Weight
  0.000000  0.000000  0.000000      1.000000
  0.018281 -0.018281 -0.018281      8.000000
  0.036562 -0.036562 -0.036562      8.000000
  0.054843 -0.054843 -0.054843      8.000000
  0.073124 -0.073124 -0.073124      4.000000
  0.000000  0.000000 -0.036562      6.000000
  0.018281 -0.018281 -0.054843     24.000000
  0.036562 -0.036562 -0.073124     24.000000
  0.054843 -0.054843 -0.091405     24.000000
  0.073124 -0.073124 -0.109687     24.000000
 -0.054843  0.054843  0.018281     24.000000
 -0.036562  0.036562  0.000000     12.000000
  0.000000  0.000000 -0.073124      6.000000
  0.018281 -0.018281 -0.091405     24.000000
  0.036562 -0.036562 -0.109687     24.000000
  0.054843 -0.054843 -0.127968     24.000000
  0.073124 -0.073124 -0.146249     12.000000
  0.000000  0.000000 -0.109687      6.000000
  0.018281 -0.018281 -0.127968     24.000000
  0.036562 -0.036562 -0.146249     12.000000
  0.000000  0.000000 -0.146249      3.000000
  0.036562  0.000000 -0.073124     24.000000
  0.054843 -0.018281 -0.091405     48.000000
  0.073124 -0.036562 -0.109687     24.000000
  0.036562  0.000000 -0.109687     24.000000
  0.054843 -0.018281 -0.127968     48.000000
  0.073124 -0.036562 -0.146249     24.000000
  0.036562  0.000000 -0.146249     12.000000
  0.073124  0.000000 -0.146249      6.000000
 


--------------------------------------------------------------------------------------------------------




 Dimension of arrays:
   k-points           NKPTS =     29   k-points in BZ     NKDIM =     29   number of bands    NBANDS=     13
   number of dos      NEDOS =    301   number of ions     NIONS =      4
   non local maximal  LDIM  =      5   non local SUM 2l+1 LMDIM =     13
   total plane-waves  NPLWV =  46656
   max r-space proj   IRMAX =      1   max aug-charges    IRDMAX=  32593
   dimension x,y,z NGX =    36 NGY =   36 NGZ =   36
   dimension x,y,z NGXF=    72 NGYF=   72 NGZF=   72
   support grid    NGXF=    72 NGYF=   72 NGZF=   72
   ions per type =               2   1   1
   NGX,Y,Z   is equivalent  to a cutoff of  12.38, 12.38, 12.38 a.u.
   NGXF,Y,Z  is equivalent  to a cutoff of  24.76, 24.76, 24.76 a.u.

 SYSTEM =  unknown system                          
 POSCAR =  Na Sb Li                                

 Startparameter for this run:
   NWRITE =      2    write-flag & timer
   PREC   = acc       normal or accurate (medium, high low for compatibility)
   ISTART =      0    job   : 0-new  1-cont  2-samecut
   ICHARG =      2    charge: 1-file 2-atom 10-const
   ISPIN  =      1    spin polarized calculation?
   LNONCOLLINEAR =      F non collinear calculations
   LSORBIT =      F    spin-orbit coupling
   INIWAV =      1    electr: 0-lowe 1-rand  2-diag
   LASPH  =      F    aspherical Exc in radial PAW
   METAGGA=      F    non-selfconsistent MetaGGA calc.

 Electronic Relaxation 1
   ENCUT  =  520.0 eV  38.22 Ry    6.18 a.u.   8.99  8.99  8.99*2*pi/ulx,y,z
   ENINI  =  520.0     initial cutoff
   ENAUG  =  628.9 eV  augmentation charge cutoff
   NELM   =    150;   NELMIN=  5; NELMDL= -5     # of ELM steps 
   EDIFF  = 0.1E-07   stopping-criterion for ELM
   LREAL  =      F    real-space projection
   NLSPLINE    = F    spline interpolate recip. space projectors
   LCOMPAT=      F    compatible to vasp.4.4
   GGA_COMPAT  = T    GGA compatible to vasp.4.4-vasp.4.6
   LMAXPAW     = -100 max onsite density
   LMAXMIX     =    2 max onsite mixed and CHGCAR
   VOSKOWN=      0    Vosko Wilk Nusair interpolation
   ROPT   =    0.00000   0.00000   0.00000
 Ionic relaxation
   EDIFFG = 0.1E-06   stopping-criterion for IOM
   NSW    =      0    number of steps for IOM
   NBLOCK =      1;   KBLOCK =      1    inner block; outer block 
   IBRION =     -1    ionic relax: 0-MD 1-quasi-New 2-CG
   NFREE  =      0    steps in history (QN), initial steepest desc. (CG)
   ISIF   =      3    stress and relaxation
   IWAVPR =     10    prediction:  0-non 1-charg 2-wave 3-comb
   ISYM   =      2    0-nonsym 1-usesym 2-fastsym
   LCORR  =      T    Harris-Foulkes like correction to forces

   POTIM  = 0.5000    time-step for ionic-motion
   TEIN   =    0.0    initial temperature
   TEBEG  =    0.0;   TEEND  =   0.0 temperature during run
   SMASS  =  -3.00    Nose mass-parameter (am)
   estimated Nose-frequenzy (Omega)   =  0.10E-29 period in steps =****** mass=  -0.534E-27a.u.
   SCALEE = 1.0000    scale energy and forces
   NPACO  =    256;   APACO  = 16.0  distance and # of slots for P.C.
   PSTRESS=    0.0 pullay stress

  Mass of Ions in am
   POMASS =   7.01 22.99121.75
  Ionic Valenz
   ZVAL   =   3.00  7.00  5.00
  Atomic Wigner-Seitz radii
   RWIGS  =  -1.00 -1.00 -1.00
  virtual crystal weights 
   VCA    =   1.00  1.00  1.00
   NELECT =      18.0000    total number of electrons
   NUPDOWN=      -1.0000    fix difference up-down

 DOS related values:
   EMIN   =  10.00;   EMAX   =-10.00  energy-range for DOS
   EFERMI =   0.00
   ISMEAR =     0;   SIGMA  =   0.05  broadening in eV -4-tet -1-fermi 0-gaus

 Electronic relaxation 2 (details)
   IALGO  =     38    algorithm
   LDIAG  =      T    sub-space diagonalisation (order eigenvalues)
   LSUBROT=      F    optimize rotation matrix (better conditioning)
   TURBO    =      0    0=normal 1=particle mesh
   IRESTART =      0    0=no restart 2=restart with 2 vectors
   NREBOOT  =      0    no. of reboots
   NMIN     =      0    reboot dimension
   EREF     =   0.00    reference energy to select bands
   IMIX   =      4    mixing-type and parameters
     AMIX     =   0.40;   BMIX     =  1.00
     AMIX_MAG =   1.60;   BMIX_MAG =  1.00
     AMIN     =   0.10
     WC   =   100.;   INIMIX=   1;  MIXPRE=   1;  MAXMIX= -45

 Intra band minimization:
   WEIMIN = 0.0000     energy-eigenvalue tresh-hold
   EBREAK =  0.19E-09  absolut break condition
   DEPER  =   0.30     relativ break condition  

   TIME   =   0.40     timestep for ELM

  volume/ion in A,a.u.               =      19.98       134.83
  Fermi-wavevector in a.u.,A,eV,Ry     =   0.996042  1.882247 13.498341  0.992100
  Thomas-Fermi vector in A             =   2.128104
 
 Write flags
   LWAVE        =      F    write WAVECAR
   LDOWNSAMPLE  =      F    k-point downsampling of WAVECAR
   LCHARG       =      F    write CHGCAR
   LVTOT        =      F    write LOCPOT, total local potential
   LVHAR        =      F    write LOCPOT, Hartree potential only
   LELF         =      F    write electronic localiz. function (ELF)
   LORBIT       =      0    0 simple, 1 ext, 2 COOP (PROOUT), +10 PAW based schemes


 Dipole corrections
   LMONO  =      F    monopole corrections only (constant potential shift)
   LDIPOL =      F    correct potential (dipole corrections)
   IDIPOL =      0    1-x, 2-y, 3-z, 4-all directions 
   EPSILON=  1.0000000 bulk dielectric constant

 Exchange correlation treatment:
   GGA     =    PE    GGA type
   LEXCH   =     8    internal setting for exchange type
   VOSKOWN=      0    Vosko Wilk Nusair interpolation
   LHFCALC =     F    Hartree Fock is set to
   LHFONE  =     F    Hartree Fock one center treatment
   AEXX    =    0.0000 exact exchange contribution

 Linear response parameters
   LEPSILON=     F    determine dielectric tensor
   LRPA    =     F    only Hartree local field effects (RPA)
   LNABLA  =     F    use nabla operator in PAW spheres
   LVEL    =     F    velocity operator in full k-point grid
   LINTERFAST=   F  fast interpolation
   KINTER  =     0    interpolate to denser k-point grid
   CSHIFT  =0.1000    complex shift for real part using Kramers Kronig
   OMEGAMAX=  -1.0    maximum frequency
   DEG_THRESHOLD= 0.2000000E-02 threshold for treating states as degnerate
   RTIME   =   -0.100 relaxation time in fs
  (WPLASMAI=    0.000 imaginary part of plasma frequency in eV, 0.658/RTIME)
   DFIELD  = 0.0000000 0.0000000 0.0000000 field for delta impulse in time
 
 Orbital magnetization related:
   ORBITALMAG=     F  switch on orbital magnetization
   LCHIMAG   =     F  perturbation theory with respect to B field
   DQ        =  0.001000  dq finite difference perturbation B field
   LLRAUG    =     F  two centre corrections for induced B field



--------------------------------------------------------------------------------------------------------


 Static calculation
 charge density and potential will be updated during run
 non-spin polarized calculation
 Variant of blocked Davidson
 Davidson routine will perform the subspace rotation
 perform sub-space diagonalisation
    after iterative eigenvector-optimisation
 modified Broyden-mixing scheme, WC =      100.0
 initial mixing is a Kerker type mixing with AMIX =  0.4000 and BMIX =      1.0000
 Hartree-type preconditioning will be used
 using additional bands            4
 reciprocal scheme for non local part
 use partial core corrections
 calculate Harris-corrections to forces 
   (improved forces if not selfconsistent)
 use gradient corrections 
 use of overlap-Matrix (Vanderbilt PP)
 Gauss-broadening in eV      SIGMA  =   0.05


--------------------------------------------------------------------------------------------------------


  energy-cutoff  :      520.00
  volume of cell :       79.92
      direct lattice vectors                 reciprocal lattice vectors
     3.418833342 -3.418833342  0.000000000     0.146248720 -0.146248720 -0.146248720
    -3.418833342  0.000000000 -3.418833342     0.000000000  0.000000000 -0.292497440
     3.418833342  3.418833342  0.000000000     0.146248720  0.146248720 -0.146248720

  length of vectors
     4.834960480  4.834960480  4.834960480     0.253310213  0.292497440  0.253310213


 
 k-points in units of 2pi/SCALE and weight: KPOINTS                                 
   0.00000000  0.00000000  0.00000000       0.002
   0.01828109 -0.01828109 -0.01828109       0.016
   0.03656218 -0.03656218 -0.03656218       0.016
   0.05484327 -0.05484327 -0.05484327       0.016
   0.07312436 -0.07312436 -0.07312436       0.008
   0.00000000  0.00000000 -0.03656218       0.012
   0.01828109 -0.01828109 -0.05484327       0.047
   0.03656218 -0.03656218 -0.07312436       0.047
   0.05484327 -0.05484327 -0.09140545       0.047
   0.07312436 -0.07312436 -0.10968654       0.047
  -0.05484327  0.05484327  0.01828109       0.047
  -0.03656218  0.03656218  0.00000000       0.023
   0.00000000  0.00000000 -0.07312436       0.012
   0.01828109 -0.01828109 -0.09140545       0.047
   0.03656218 -0.03656218 -0.10968654       0.047
   0.05484327 -0.05484327 -0.12796763       0.047
   0.07312436 -0.07312436 -0.14624872       0.023
   0.00000000  0.00000000 -0.10968654       0.012
   0.01828109 -0.01828109 -0.12796763       0.047
   0.03656218 -0.03656218 -0.14624872       0.023
   0.00000000  0.00000000 -0.14624872       0.006
   0.03656218  0.00000000 -0.07312436       0.047
   0.05484327 -0.01828109 -0.09140545       0.094
   0.07312436 -0.03656218 -0.10968654       0.047
   0.03656218  0.00000000 -0.10968654       0.047
   0.05484327 -0.01828109 -0.12796763       0.094
   0.07312436 -0.03656218 -0.14624872       0.047
   0.03656218  0.00000000 -0.14624872       0.023
   0.07312436  0.00000000 -0.14624872       0.012
 
 k-points in reciprocal lattice and weights: KPOINTS                                 
   0.00000000  0.00000000  0.00000000       0.002
   0.12500000  0.00000000  0.00000000       0.016
   0.25000000  0.00000000  0.00000000       0.016
   0.37500000  0.00000000  0.00000000       0.016
   0.50000000  0.00000000  0.00000000       0.008
   0.00000000  0.12500000  0.00000000       0.012
   0.12500000  0.12500000  0.00000000       0.047
   0.25000000  0.12500000  0.00000000       0.047
   0.37500000  0.12500000  0.00000000       0.047
   0.50000000  0.12500000  0.00000000       0.047
  -0.37500000  0.12500000  0.00000000       0.047
  -0.25000000  0.12500000  0.00000000       0.023
   0.00000000  0.25000000  0.00000000       0.012
   0.12500000  0.25000000  0.00000000       0.047
   0.25000000  0.25000000  0.00000000       0.047
   0.37500000  0.25000000  0.00000000       0.047
   0.50000000  0.25000000  0.00000000       0.023
   0.00000000  0.37500000  0.00000000       0.012
   0.12500000  0.37500000  0.00000000       0.047
   0.25000000  0.37500000  0.00000000       0.023
   0.00000000  0.50000000  0.00000000       0.006
   0.12500000  0.12500000  0.12500000       0.047
   0.25000000  0.12500000  0.12500000       0.094
   0.37500000  0.12500000  0.12500000       0.047
   0.12500000  0.25000000  0.12500000       0.047
   0.25000000  0.25000000  0.12500000       0.094
   0.37500000  0.25000000  0.12500000       0.047
   0.12500000  0.37500000  0.12500000       0.023
   0.25000000  0.25000000  0.25000000       0.012
 
 position of ions in fractional coordinates (direct lattice) 
   0.74999822  0.49999882  0.24999941
   0.24999941  0.49999882  0.74999822
   0.50000030  0.00000000  0.50000030
   0.00000000  0.00000000  0.00000000
 
 position of ions in cartesian coordinates  (Angst):
   1.70941262 -1.70941262 -1.70941262
   1.70941262  1.70941262 -1.70941262
   3.41883537  0.00000000  0.00000000
   0.00000000  0.00000000  0.00000000
 


--------------------------------------------------------------------------------------------------------


 k-point  1 :   0.0000 0.0000 0.0000  plane waves:    2109
 k-point  2 :   0.1250 0.0000 0.0000  plane waves:    2133
 k-point  3 :   0.2500 0.0000 0.0000  plane waves:    2142
 k-point  4 :   0.3750 0.0000 0.0000  plane waves:    2147
 k-point  5 :   0.5000 0.0000 0.0000  plane waves:    2138
 k-point  6 :   0.0000 0.1250 0.0000  plane waves:    2137
 k-point  7 :   0.1250 0.1250 0.0000  plane waves:    2143
 k-point  8 :   0.2500 0.1250 0.0000  plane waves:    2150
 k-point  9 :   0.3750 0.1250 0.0000  plane waves:    2150
 k-point 10 :   0.5000 0.1250 0.0000  plane waves:    2149
 k-point 11 :  -0.3750 0.1250 0.0000  plane waves:    2147
 k-point 12 :  -0.2500 0.1250 0.0000  plane waves:    2131
 k-point 13 :   0.0000 0.2500 0.0000  plane waves:    2141
 k-point 14 :   0.1250 0.2500 0.0000  plane waves:    2143
 k-point 15 :   0.2500 0.2500 0.0000  plane waves:    2152
 k-point 16 :   0.3750 0.2500 0.0000  plane waves:    2161
 k-point 17 :   0.5000 0.2500 0.0000  plane waves:    2151
 k-point 18 :   0.0000 0.3750 0.0000  plane waves:    2152
 k-point 19 :   0.1250 0.3750 0.0000  plane waves:    2156
 k-point 20 :   0.2500 0.3750 0.0000  plane waves:    2149
 k-point 21 :   0.0000 0.5000 0.0000  plane waves:    2164
 k-point 22 :   0.1250 0.1250 0.1250  plane waves:    2151
 k-point 23 :   0.2500 0.1250 0.1250  plane waves:    2154
 k-point 24 :   0.3750 0.1250 0.1250  plane waves:    2162
 k-point 25 :   0.1250 0.2500 0.1250  plane waves:    2170
 k-point 26 :   0.2500 0.2500 0.1250  plane waves:    2164
 k-point 27 :   0.3750 0.2500 0.1250  plane waves:    2160
 k-point 28 :   0.1250 0.3750 0.1250  plane waves:    2166
 k-point 29 :   0.2500 0.2500 0.2500  plane waves:    2180

 maximum and minimum number of plane-waves per node :       319      294

 maximum number of plane-waves:      2180
 maximum index in each direction: 
   IXMAX=    9   IYMAX=    8   IZMAX=    8
   IXMIN=   -9   IYMIN=   -9   IZMIN=   -9


 parallel 3D FFT for wavefunctions:
    minimum data exchange during FFTs selected (reduces bandwidth)
 parallel 3D FFT for charge:
    minimum data exchange during FFTs selected (reduces bandwidth)


 total amount of memory used by VASP MPI-rank0    40969. kBytes
=======================================================================

   base      :      30000. kBytes
   nonl-proj :       2815. kBytes
   fftplans  :       2164. kBytes
   grid      :       4040. kBytes
   one-center:          8. kBytes
   wavefun   :       1942. kBytes
 
     INWAV:  cpu time    0.0000: real time    0.0000
 Broyden mixing: mesh for mixing (old mesh)
   NGX = 17   NGY = 17   NGZ = 17
  (NGX  = 72   NGY  = 72   NGZ  = 72)
  gives a total of   4913 points

 initial charge density was supplied:
 charge density of overlapping atoms calculated
 number of electron      18.0000000 magnetization 
 keeping initial charge density in first step


--------------------------------------------------------------------------------------------------------


 Maximum index for augmentation-charges         5241 (set IRDMAX)


--------------------------------------------------------------------------------------------------------


 First call to EWALD:  gamma=   0.411
 Maximum number of real-space cells 3x 3x 3
 Maximum number of reciprocal cells 3x 3x 3

    FEWALD:  cpu time    0.0017: real time    0.0018


--------------------------------------- Iteration      1(   1)  ---------------------------------------


    POTLOK:  cpu time    0.0353: real time    0.0376
    SETDIJ:  cpu time    0.0042: real time    0.0042
     EDDAV:  cpu time    0.1017: real time    0.1019
       DOS:  cpu time    0.0004: real time    0.0004
    --------------------------------------------
      LOOP:  cpu time    0.1416: real time    0.1441

 eigenvalue-minimisations  :   754
 total energy-change (2. order) : 0.9243229E+02  (-0.8807466E+03)
 number of electron      18.0000000 magnetization 
 augmentation part       18.0000000 magnetization 

 Free energy of the ion-electron system (eV)
  ---------------------------------------------------
  alpha Z        PSCENC =        10.58173741
  Ewald energy   TEWEN  =      -666.72558547
  -Hartree energ DENC   =      -326.63675893
  -exchange      EXHF   =         0.00000000
  -V(xc)+E(xc)   XCENC  =         3.44421819
  PAW double counting   =       825.55058042     -890.97831796
  entropy T*S    EENTRO =        -0.00117250
  eigenvalues    EBANDS =      -184.34113872
  atomic energy  EATOM  =      1321.53873213
  Solvation  Ediel_sol  =         0.00000000
  ---------------------------------------------------
  free energy    TOTEN  =        92.43229456 eV

  energy without entropy =       92.43346706  energy(sigma->0) =       92.43288081


--------------------------------------------------------------------------------------------------------




--------------------------------------- Iteration      1(   2)  ---------------------------------------


     EDDAV:  cpu time    0.0948: real time    0.0967
       DOS:  cpu time    0.0003: real time    0.0003
    --------------------------------------------
      LOOP:  cpu time    0.0951: real time    0.0971

 eigenvalue-minimisations  :   814
 total energy-change (2. order) :-0.9340492E+02  (-0.9108655E+02)
 number of electron      18.0000000 magnetization 
 augmentation part       18.0000000 magnetization 

 Free energy of the ion-electron system (eV)
  ---------------------------------------------------
  alpha Z        PSCENC =        10.58173741
  Ewald energy   TEWEN  =      -666.72558547
  -Hartree energ DENC   =      -326.63675893
  -exchange      EXHF   =         0.00000000
  -V(xc)+E(xc)   XCENC  =         3.44421819
  PAW double counting   =       825.55058042     -890.97831796
  entropy T*S    EENTRO =        -0.00068951
  eigenvalues    EBANDS =      -277.74653827
  atomic energy  EATOM  =      1321.53873213
  Solvation  Ediel_sol  =         0.00000000
  ---------------------------------------------------
  free energy    TOTEN  =        -0.97262199 eV

  energy without entropy =       -0.97193248  energy(sigma->0) =       -0.97227724


--------------------------------------------------------------------------------------------------------




--------------------------------------- Iteration      1(   3)  ---------------------------------------


     EDDAV:  cpu time    0.1554: real time    0.1557
       DOS:  cpu time    0.0002: real time    0.0002
    --------------------------------------------
      LOOP:  cpu time    0.1556: real time    0.1559

 eigenvalue-minimisations  :  1458
 total energy-change (2. order) :-0.1034200E+02  (-0.1025072E+02)
 number of electron      18.0000000 magnetization 
 augmentation part       18.0000000 magnetization 

 Free energy of the ion-electron system (eV)
  ---------------------------------------------------
  alpha Z        PSCENC =        10.58173741
  Ewald energy   TEWEN  =      -666.72558547
  -Hartree energ DENC   =      -326.63675893
  -exchange      EXHF   =         0.00000000
  -V(xc)+E(xc)   XCENC  =         3.44421819
  PAW double counting   =       825.55058042     -890.97831796
  entropy T*S    EENTRO =        -0.00000000
  eigenvalues    EBANDS =      -288.08922735
  atomic energy  EATOM  =      1321.53873213
  Solvation  Ediel_sol  =         0.00000000
  ---------------------------------------------------
  free energy    TOTEN  =       -11.31462157 eV

  energy without entropy =      -11.31462157  energy(sigma->0) =      -11.31462157


--------------------------------------------------------------------------------------------------------




--------------------------------------- Iteration      1(   4)  ---------------------------------------


     EDDAV:  cpu time    0.1086: real time    0.1089
       DOS:  cpu time    0.0002: real time    0.0002
    --------------------------------------------
      LOOP:  cpu time    0.1088: real time    0.1090

 eigenvalue-minimisations  :   990
 total energy-change (2. order) :-0.4250003E+00  (-0.4236080E+00)
 number of electron      18.0000000 magnetization 
 augmentation part       18.0000000 magnetization 

 Free energy of the ion-electron system (eV)
  ---------------------------------------------------
  alpha Z        PSCENC =        10.58173741
  Ewald energy   TEWEN  =      -666.72558547
  -Hartree energ DENC   =      -326.63675893
  -exchange      EXHF   =         0.00000000
  -V(xc)+E(xc)   XCENC  =         3.44421819
  PAW double counting   =       825.55058042     -890.97831796
  entropy T*S    EENTRO =        -0.00000000
  eigenvalues    EBANDS =      -288.51422762
  atomic energy  EATOM  =      1321.53873213
  Solvation  Ediel_sol  =         0.00000000
  ---------------------------------------------------
  free energy    TOTEN  =       -11.73962184 eV

  energy without entropy =      -11.73962184  energy(sigma->0) =      -11.73962184


--------------------------------------------------------------------------------------------------------




--------------------------------------- Iteration      1(   5)  ---------------------------------------


     EDDAV:  cpu time    0.1367: real time    0.1371
       DOS:  cpu time    0.0002: real time    0.0002
    CHARGE:  cpu time    0.0178: real time    0.0179
    MIXING:  cpu time    0.0016: real time    0.0016
    --------------------------------------------
      LOOP:  cpu time    0.1563: real time    0.1567

 eigenvalue-minimisations  :  1220
 total energy-change (2. order) :-0.4310768E-01  (-0.4310043E-01)
 number of electron      17.9999979 magnetization 
 augmentation part        5.6068183 magnetization 

 Broyden mixing:
  rms(total) = 0.29709E+00    rms(broyden)= 0.29667E+00
  rms(prec ) = 0.62302E+00
  weight for this iteration     100.00

 Free energy of the ion-electron system (eV)
  ---------------------------------------------------
  alpha Z        PSCENC =        10.58173741
  Ewald energy   TEWEN  =      -666.72558547
  -Hartree energ DENC   =      -326.63675893
  -exchange      EXHF   =         0.00000000
  -V(xc)+E(xc)   XCENC  =         3.44421819
  PAW double counting   =       825.55058042     -890.97831796
  entropy T*S    EENTRO =        -0.00000000
  eigenvalues    EBANDS =      -288.55733530
  atomic energy  EATOM  =      1321.53873213
  Solvation  Ediel_sol  =         0.00000000
  ---------------------------------------------------
  free energy    TOTEN  =       -11.78272952 eV

  energy without entropy =      -11.78272952  energy(sigma->0) =      -11.78272952


--------------------------------------------------------------------------------------------------------




--------------------------------------- Iteration      1(   6)  ---------------------------------------


    POTLOK:  cpu time    0.0337: real time    0.0339
    SETDIJ:  cpu time    0.0037: real time    0.0037
     EDDAV:  cpu time    0.1131: real time    0.1131
       DOS:  cpu time    0.0002: real time    0.0002
    CHARGE:  cpu time    0.0168: real time    0.0168
    MIXING:  cpu time    0.0021: real time    0.0021
    --------------------------------------------
      LOOP:  cpu time    0.1696: real time    0.1699

 eigenvalue-minimisations  :   991
 total energy-change (2. order) : 0.1413286E+00  (-0.1540784E-01)
 number of electron      17.9999979 magnetization 
 augmentation part        5.6249414 magnetization 

 Broyden mixing:
  rms(total) = 0.17400E+00    rms(broyden)= 0.17399E+00
  rms(prec ) = 0.34362E+00
  weight for this iteration     100.00

 eigenvalues of (default mixing * dielectric matrix)
  average eigenvalue GAMMA=   2.3027
  2.3027

 Free energy of the ion-electron system (eV)
  ---------------------------------------------------
  alpha Z        PSCENC =        10.58173741
  Ewald energy   TEWEN  =      -666.72558547
  -Hartree energ DENC   =      -323.33869363
  -exchange      EXHF   =         0.00000000
  -V(xc)+E(xc)   XCENC  =         3.48289944
  PAW double counting   =       886.90339204     -952.35020734
  entropy T*S    EENTRO =        -0.00000000
  eigenvalues    EBANDS =      -291.73367554
  atomic energy  EATOM  =      1321.53873213
  Solvation  Ediel_sol  =         0.00000000
  ---------------------------------------------------
  free energy    TOTEN  =       -11.64140097 eV

  energy without entropy =      -11.64140097  energy(sigma->0) =      -11.64140097


--------------------------------------------------------------------------------------------------------




--------------------------------------- Iteration      1(   7)  ---------------------------------------


    POTLOK:  cpu time    0.0320: real time    0.0322
    SETDIJ:  cpu time    0.0026: real time    0.0026
     EDDAV:  cpu time    0.1213: real time    0.1214
       DOS:  cpu time    0.0002: real time    0.0002
    CHARGE:  cpu time    0.0167: real time    0.0167
    MIXING:  cpu time    0.0015: real time    0.0015
    --------------------------------------------
      LOOP:  cpu time    0.1742: real time    0.1746

 eigenvalue-minimisations  :  1100
 total energy-change (2. order) : 0.4709248E-01  (-0.1253508E-01)
 number of electron      17.9999979 magnetization 
 augmentation part        5.6334662 magnetization 

 Broyden mixing:
  rms(total) = 0.48505E-01    rms(broyden)= 0.48468E-01
  rms(prec ) = 0.91363E-01
  weight for this iteration     100.00

 eigenvalues of (default mixing * dielectric matrix)
  average eigenvalue GAMMA=   2.2996
  1.5579  3.0414

 Free energy of the ion-electron system (eV)
  ---------------------------------------------------
  alpha Z        PSCENC =        10.58173741
  Ewald energy   TEWEN  =      -666.72558547
  -Hartree energ DENC   =      -319.53297624
  -exchange      EXHF   =         0.00000000
  -V(xc)+E(xc)   XCENC  =         3.56216401
  PAW double counting   =       985.57653713    -1051.48577133
  entropy T*S    EENTRO =        -0.00000000
  eigenvalues    EBANDS =      -295.10914614
  atomic energy  EATOM  =      1321.53873213
  Solvation  Ediel_sol  =         0.00000000
  ---------------------------------------------------
  free energy    TOTEN  =       -11.59430849 eV

  energy without entropy =      -11.59430849  energy(sigma->0) =      -11.59430849


--------------------------------------------------------------------------------------------------------




--------------------------------------- Iteration      1(   8)  ---------------------------------------


    POTLOK:  cpu time    0.0318: real time    0.0321
    SETDIJ:  cpu time    0.0025: real time    0.0025
     EDDAV:  cpu time    0.1089: real time    0.1089
       DOS:  cpu time    0.0002: real time    0.0002
    CHARGE:  cpu time    0.0167: real time    0.0167
    MIXING:  cpu time    0.0015: real time    0.0015
    --------------------------------------------
      LOOP:  cpu time    0.1618: real time    0.1621

 eigenvalue-minimisations  :   919
 total energy-change (2. order) : 0.3098329E-02  (-0.1159389E-02)
 number of electron      17.9999979 magnetization 
 augmentation part        5.6257304 magnetization 

 Broyden mixing:
  rms(total) = 0.92255E-02    rms(broyden)= 0.92101E-02
  rms(prec ) = 0.12701E-01
  weight for this iteration     100.00

 eigenvalues of (default mixing * dielectric matrix)
  average eigenvalue GAMMA=   1.7670
  1.0052  2.5757  1.7202

 Free energy of the ion-electron system (eV)
  ---------------------------------------------------
  alpha Z        PSCENC =        10.58173741
  Ewald energy   TEWEN  =      -666.72558547
  -Hartree energ DENC   =      -318.39290311
  -exchange      EXHF   =         0.00000000
  -V(xc)+E(xc)   XCENC  =         3.60923848
  PAW double counting   =      1025.10230445    -1091.49366701
  entropy T*S    EENTRO =        -0.00000000
  eigenvalues    EBANDS =      -295.81106705
  atomic energy  EATOM  =      1321.53873213
  Solvation  Ediel_sol  =         0.00000000
  ---------------------------------------------------
  free energy    TOTEN  =       -11.59121016 eV

  energy without entropy =      -11.59121016  energy(sigma->0) =      -11.59121016


--------------------------------------------------------------------------------------------------------




--------------------------------------- Iteration      1(   9)  ---------------------------------------


    POTLOK:  cpu time    0.0318: real time    0.0321
    SETDIJ:  cpu time    0.0026: real time    0.0026
     EDDAV:  cpu time    0.1175: real time    0.1175
       DOS:  cpu time    0.0002: real time    0.0002
    CHARGE:  cpu time    0.0169: real time    0.0169
    MIXING:  cpu time    0.0018: real time    0.0018
    --------------------------------------------
      LOOP:  cpu time    0.1708: real time    0.1711

 eigenvalue-minimisations  :  1026
 total energy-change (2. order) : 0.2696304E-04  (-0.3677206E-04)
 number of electron      17.9999979 magnetization 
 augmentation part        5.6264592 magnetization 

 Broyden mixing:
  rms(total) = 0.48625E-02    rms(broyden)= 0.48616E-02
  rms(prec ) = 0.68226E-02
  weight for this iteration     100.00

 eigenvalues of (default mixing * dielectric matrix)
  average eigenvalue GAMMA=   1.9639
  1.0789  2.7157  2.5507  1.5104

 Free energy of the ion-electron system (eV)
  ---------------------------------------------------
  alpha Z        PSCENC =        10.58173741
  Ewald energy   TEWEN  =      -666.72558547
  -Hartree energ DENC   =      -318.41310467
  -exchange      EXHF   =         0.00000000
  -V(xc)+E(xc)   XCENC  =         3.60612932
  PAW double counting   =      1021.28458192    -1087.61767971
  entropy T*S    EENTRO =        -0.00000000
  eigenvalues    EBANDS =      -295.84599412
  atomic energy  EATOM  =      1321.53873213
  Solvation  Ediel_sol  =         0.00000000
  ---------------------------------------------------
  free energy    TOTEN  =       -11.59118320 eV

  energy without entropy =      -11.59118320  energy(sigma->0) =      -11.59118320


--------------------------------------------------------------------------------------------------------




--------------------------------------- Iteration      1(  10)  ---------------------------------------


    POTLOK:  cpu time    0.0329: real time    0.0332
    SETDIJ:  cpu time    0.0030: real time    0.0030
     EDDAV:  cpu time    0.1355: real time    0.1355
       DOS:  cpu time    0.0002: real time    0.0002
    CHARGE:  cpu time    0.0190: real time    0.0190
    MIXING:  cpu time    0.0018: real time    0.0018
    --------------------------------------------
      LOOP:  cpu time    0.1925: real time    0.1927

 eigenvalue-minimisations  :  1127
 total energy-change (2. order) : 0.3030370E-04  (-0.6238333E-05)
 number of electron      17.9999979 magnetization 
 augmentation part        5.6272450 magnetization 

 Broyden mixing:
  rms(total) = 0.41694E-03    rms(broyden)= 0.41655E-03
  rms(prec ) = 0.73133E-03
  weight for this iteration     100.00

 eigenvalues of (default mixing * dielectric matrix)
  average eigenvalue GAMMA=   1.7849
  2.8931  2.3146  1.4581  0.9773  1.2815

 Free energy of the ion-electron system (eV)
  ---------------------------------------------------
  alpha Z        PSCENC =        10.58173741
  Ewald energy   TEWEN  =      -666.72558547
  -Hartree energ DENC   =      -318.36950928
  -exchange      EXHF   =         0.00000000
  -V(xc)+E(xc)   XCENC  =         3.60657716
  PAW double counting   =      1017.60175216    -1083.91936132
  entropy T*S    EENTRO =        -0.00000000
  eigenvalues    EBANDS =      -295.90549568
  atomic energy  EATOM  =      1321.53873213
  Solvation  Ediel_sol  =         0.00000000
  ---------------------------------------------------
  free energy    TOTEN  =       -11.59115289 eV

  energy without entropy =      -11.59115289  energy(sigma->0) =      -11.59115289


--------------------------------------------------------------------------------------------------------




--------------------------------------- Iteration      1(  11)  ---------------------------------------


    POTLOK:  cpu time    0.0342: real time    0.0348
    SETDIJ:  cpu time    0.0034: real time    0.0034
     EDDAV:  cpu time    0.1411: real time    0.1411
       DOS:  cpu time    0.0002: real time    0.0002
    CHARGE:  cpu time    0.0176: real time    0.0176
    MIXING:  cpu time    0.0017: real time    0.0017
    --------------------------------------------
      LOOP:  cpu time    0.1981: real time    0.1988

 eigenvalue-minimisations  :  1135
 total energy-change (2. order) :-0.9271266E-06  (-0.6216247E-06)
 number of electron      17.9999979 magnetization 
 augmentation part        5.6272615 magnetization 

 Broyden mixing:
  rms(total) = 0.22039E-03    rms(broyden)= 0.21925E-03
  rms(prec ) = 0.37536E-03
  weight for this iteration     100.00

 eigenvalues of (default mixing * dielectric matrix)
  average eigenvalue GAMMA=   1.7169
  2.8875  2.1794  1.6019  1.6019  1.0153  1.0153

 Free energy of the ion-electron system (eV)
  ---------------------------------------------------
  alpha Z        PSCENC =        10.58173741
  Ewald energy   TEWEN  =      -666.72558547
  -Hartree energ DENC   =      -318.36847529
  -exchange      EXHF   =         0.00000000
  -V(xc)+E(xc)   XCENC  =         3.60700111
  PAW double counting   =      1017.89275068    -1084.21882549
  entropy T*S    EENTRO =        -0.00000000
  eigenvalues    EBANDS =      -295.89848889
  atomic energy  EATOM  =      1321.53873213
  Solvation  Ediel_sol  =         0.00000000
  ---------------------------------------------------
  free energy    TOTEN  =       -11.59115382 eV

  energy without entropy =      -11.59115382  energy(sigma->0) =      -11.59115382


--------------------------------------------------------------------------------------------------------




--------------------------------------- Iteration      1(  12)  ---------------------------------------


    POTLOK:  cpu time    0.0333: real time    0.0336
    SETDIJ:  cpu time    0.0027: real time    0.0027
     EDDAV:  cpu time    0.1142: real time    0.1143
       DOS:  cpu time    0.0002: real time    0.0002
    CHARGE:  cpu time    0.0177: real time    0.0177
    MIXING:  cpu time    0.0017: real time    0.0017
    --------------------------------------------
      LOOP:  cpu time    0.1699: real time    0.1703

 eigenvalue-minimisations  :   962
 total energy-change (2. order) :-0.4774033E-06  (-0.2465833E-07)
 number of electron      17.9999979 magnetization 
 augmentation part        5.6272681 magnetization 

 Broyden mixing:
  rms(total) = 0.90460E-04    rms(broyden)= 0.90225E-04
  rms(prec ) = 0.15655E-03
  weight for this iteration     100.00

 eigenvalues of (default mixing * dielectric matrix)
  average eigenvalue GAMMA=   1.8263
  2.9091  2.7958  2.0633  1.0026  1.0353  1.4890  1.4890

 Free energy of the ion-electron system (eV)
  ---------------------------------------------------
  alpha Z        PSCENC =        10.58173741
  Ewald energy   TEWEN  =      -666.72558547
  -Hartree energ DENC   =      -318.36825998
  -exchange      EXHF   =         0.00000000
  -V(xc)+E(xc)   XCENC  =         3.60680950
  PAW double counting   =      1017.86227678    -1084.18936989
  entropy T*S    EENTRO =        -0.00000000
  eigenvalues    EBANDS =      -295.89749479
  atomic energy  EATOM  =      1321.53873213
  Solvation  Ediel_sol  =         0.00000000
  ---------------------------------------------------
  free energy    TOTEN  =       -11.59115430 eV

  energy without entropy =      -11.59115430  energy(sigma->0) =      -11.59115430


--------------------------------------------------------------------------------------------------------




--------------------------------------- Iteration      1(  13)  ---------------------------------------


    POTLOK:  cpu time    0.0329: real time    0.0333
    SETDIJ:  cpu time    0.0026: real time    0.0026
     EDDAV:  cpu time    0.1142: real time    0.1143
       DOS:  cpu time    0.0002: real time    0.0002
    CHARGE:  cpu time    0.0175: real time    0.0175
    MIXING:  cpu time    0.0017: real time    0.0017
    --------------------------------------------
      LOOP:  cpu time    0.1691: real time    0.1696

 eigenvalue-minimisations  :   919
 total energy-change (2. order) :-0.1746921E-06  (-0.3152064E-08)
 number of electron      17.9999979 magnetization 
 augmentation part        5.6272748 magnetization 

 Broyden mixing:
  rms(total) = 0.56430E-04    rms(broyden)= 0.56406E-04
  rms(prec ) = 0.63498E-04
  weight for this iteration     100.00

 eigenvalues of (default mixing * dielectric matrix)
  average eigenvalue GAMMA=   1.8095
  2.9320  2.6861  2.5562  1.5328  1.5328  0.9736  1.1315  1.1315

 Free energy of the ion-electron system (eV)
  ---------------------------------------------------
  alpha Z        PSCENC =        10.58173741
  Ewald energy   TEWEN  =      -666.72558547
  -Hartree energ DENC   =      -318.36704946
  -exchange      EXHF   =         0.00000000
  -V(xc)+E(xc)   XCENC  =         3.60658538
  PAW double counting   =      1017.79748266    -1084.12437088
  entropy T*S    EENTRO =        -0.00000000
  eigenvalues    EBANDS =      -295.89868624
  atomic energy  EATOM  =      1321.53873213
  Solvation  Ediel_sol  =         0.00000000
  ---------------------------------------------------
  free energy    TOTEN  =       -11.59115447 eV

  energy without entropy =      -11.59115447  energy(sigma->0) =      -11.59115447


--------------------------------------------------------------------------------------------------------




--------------------------------------- Iteration      1(  14)  ---------------------------------------


    POTLOK:  cpu time    0.0329: real time    0.0333
    SETDIJ:  cpu time    0.0027: real time    0.0027
     EDDAV:  cpu time    0.0817: real time    0.0817
       DOS:  cpu time    0.0003: real time    0.0003
    CHARGE:  cpu time    0.0176: real time    0.0176
    MIXING:  cpu time    0.0018: real time    0.0018
    --------------------------------------------
      LOOP:  cpu time    0.1370: real time    0.1373

 eigenvalue-minimisations  :   552
 total energy-change (2. order) :-0.2515460E-06  (-0.2189640E-09)
 number of electron      17.9999979 magnetization 
 augmentation part        5.6272733 magnetization 

 Broyden mixing:
  rms(total) = 0.92801E-05    rms(broyden)= 0.92746E-05
  rms(prec ) = 0.13000E-04
  weight for this iteration     100.00

 eigenvalues of (default mixing * dielectric matrix)
  average eigenvalue GAMMA=   1.8348
  2.9210  2.7312  2.7312  1.9422  1.6261  1.4831  0.9683  1.0552  1.0552

 Free energy of the ion-electron system (eV)
  ---------------------------------------------------
  alpha Z        PSCENC =        10.58173741
  Ewald energy   TEWEN  =      -666.72558547
  -Hartree energ DENC   =      -318.36664105
  -exchange      EXHF   =         0.00000000
  -V(xc)+E(xc)   XCENC  =         3.60656362
  PAW double counting   =      1017.84864129    -1084.17560200
  entropy T*S    EENTRO =        -0.00000000
  eigenvalues    EBANDS =      -295.89900066
  atomic energy  EATOM  =      1321.53873213
  Solvation  Ediel_sol  =         0.00000000
  ---------------------------------------------------
  free energy    TOTEN  =       -11.59115472 eV

  energy without entropy =      -11.59115472  energy(sigma->0) =      -11.59115472


--------------------------------------------------------------------------------------------------------




--------------------------------------- Iteration      1(  15)  ---------------------------------------


    POTLOK:  cpu time    0.0328: real time    0.0332
    SETDIJ:  cpu time    0.0025: real time    0.0025
     EDDAV:  cpu time    0.0725: real time    0.0725
       DOS:  cpu time    0.0002: real time    0.0002
    CHARGE:  cpu time    0.0178: real time    0.0178
    MIXING:  cpu time    0.0019: real time    0.0019
    --------------------------------------------
      LOOP:  cpu time    0.1276: real time    0.1280

 eigenvalue-minimisations  :   492
 total energy-change (2. order) : 0.4718208E-07  (-0.5149534E-10)
 number of electron      17.9999979 magnetization 
 augmentation part        5.6272715 magnetization 

 Broyden mixing:
  rms(total) = 0.83103E-05    rms(broyden)= 0.83103E-05
  rms(prec ) = 0.94918E-05
  weight for this iteration     100.00

 eigenvalues of (default mixing * dielectric matrix)
  average eigenvalue GAMMA=   1.8082
  2.8896  2.8896  2.5537  2.5537  1.5793  1.4520  0.9822  0.9822  1.0997  1.0997

 Free energy of the ion-electron system (eV)
  ---------------------------------------------------
  alpha Z        PSCENC =        10.58173741
  Ewald energy   TEWEN  =      -666.72558547
  -Hartree energ DENC   =      -318.36673774
  -exchange      EXHF   =         0.00000000
  -V(xc)+E(xc)   XCENC  =         3.60657495
  PAW double counting   =      1017.85129979    -1084.17831912
  entropy T*S    EENTRO =        -0.00000000
  eigenvalues    EBANDS =      -295.89885663
  atomic energy  EATOM  =      1321.53873213
  Solvation  Ediel_sol  =         0.00000000
  ---------------------------------------------------
  free energy    TOTEN  =       -11.59115468 eV

  energy without entropy =      -11.59115468  energy(sigma->0) =      -11.59115468


--------------------------------------------------------------------------------------------------------




--------------------------------------- Iteration      1(  16)  ---------------------------------------


    POTLOK:  cpu time    0.0332: real time    0.0335
    SETDIJ:  cpu time    0.0026: real time    0.0026
     EDDAV:  cpu time    0.0705: real time    0.0705
       DOS:  cpu time    0.0002: real time    0.0002
    CHARGE:  cpu time    0.0178: real time    0.0178
    MIXING:  cpu time    0.0019: real time    0.0019
    --------------------------------------------
      LOOP:  cpu time    0.1262: real time    0.1265

 eigenvalue-minimisations  :   457
 total energy-change (2. order) : 0.5606171E-07  (-0.1727455E-10)
 number of electron      17.9999979 magnetization 
 augmentation part        5.6272718 magnetization 

 Broyden mixing:
  rms(total) = 0.13786E-05    rms(broyden)= 0.13786E-05
  rms(prec ) = 0.19466E-05
  weight for this iteration     100.00

 eigenvalues of (default mixing * dielectric matrix)
  average eigenvalue GAMMA=   1.7663
  2.9115  2.6786  2.6786  2.6235  1.5958  1.5958  1.2406  1.1973  1.0033  1.0033
  0.9005

 Free energy of the ion-electron system (eV)
  ---------------------------------------------------
  alpha Z        PSCENC =        10.58173741
  Ewald energy   TEWEN  =      -666.72558547
  -Hartree energ DENC   =      -318.36678823
  -exchange      EXHF   =         0.00000000
  -V(xc)+E(xc)   XCENC  =         3.60658166
  PAW double counting   =      1017.84540181    -1084.17241596
  entropy T*S    EENTRO =        -0.00000000
  eigenvalues    EBANDS =      -295.89881797
  atomic energy  EATOM  =      1321.53873213
  Solvation  Ediel_sol  =         0.00000000
  ---------------------------------------------------
  free energy    TOTEN  =       -11.59115462 eV

  energy without entropy =      -11.59115462  energy(sigma->0) =      -11.59115462


--------------------------------------------------------------------------------------------------------




--------------------------------------- Iteration      1(  17)  ---------------------------------------


    POTLOK:  cpu time    0.0328: real time    0.0352
    SETDIJ:  cpu time    0.0020: real time    0.0020
     EDDAV:  cpu time    0.0672: real time    0.0672
       DOS:  cpu time    0.0002: real time    0.0002
    --------------------------------------------
      LOOP:  cpu time    0.1022: real time    0.1046

 eigenvalue-minimisations  :   432
 total energy-change (2. order) :-0.5391939E-08  (-0.8833259E-11)
 number of electron      17.9999979 magnetization 
 augmentation part        5.6272718 magnetization 

 Free energy of the ion-electron system (eV)
  ---------------------------------------------------
  alpha Z        PSCENC =        10.58173741
  Ewald energy   TEWEN  =      -666.72558547
  -Hartree energ DENC   =      -318.36679378
  -exchange      EXHF   =         0.00000000
  -V(xc)+E(xc)   XCENC  =         3.60658221
  PAW double counting   =      1017.84472340    -1084.17175285
  entropy T*S    EENTRO =        -0.00000000
  eigenvalues    EBANDS =      -295.89879769
  atomic energy  EATOM  =      1321.53873213
  Solvation  Ediel_sol  =         0.00000000
  ---------------------------------------------------
  free energy    TOTEN  =       -11.59115463 eV

  energy without entropy =      -11.59115463  energy(sigma->0) =      -11.59115463


--------------------------------------------------------------------------------------------------------




 average (electrostatic) potential at core
  the test charge radii are     0.7079  0.9254  1.1712
  (the norm of the test charge is              1.0000)
       1 -61.9486       2 -61.9486       3 -46.6349       4 -87.9827
 
 
 
 E-fermi :   3.8569     XC(G=0):  -8.5620     alpha+bet :-10.4052


 k-point     1 :       0.0000    0.0000    0.0000
  band No.  band energies     occupation 
      1     -42.8653      2.00000
      2     -42.8602      2.00000
      3     -20.8363      2.00000
      4     -20.8363      2.00000
      5     -20.8363      2.00000
      6      -5.4219      2.00000
      7       3.5362      2.00000
      8       3.5362      2.00000
      9       3.5362      2.00000
     10       5.1585      0.00000
     11       6.1849      0.00000
     12       6.1849      0.00000
     13       6.1849      0.00000

 k-point     2 :       0.1250    0.0000    0.0000
  band No.  band energies     occupation 
      1     -42.8651      2.00000
      2     -42.8604      2.00000
      3     -20.8367      2.00000
      4     -20.8363      2.00000
      5     -20.8363      2.00000
      6      -5.3480      2.00000
      7       2.5689      2.00000
      8       3.3861      2.00000
      9       3.3862      2.00000
     10       5.5834      0.00000
     11       6.4364      0.00000
     12       6.4364      0.00000
     13       6.8763      0.00000

 k-point     3 :       0.2500    0.0000    0.0000
  band No.  band energies     occupation 
      1     -42.8646      2.00000
      2     -42.8609      2.00000
      3     -20.8376      2.00000
      4     -20.8364      2.00000
      5     -20.8364      2.00000
      6      -5.1511      2.00000
      7       1.2777      2.00000
      8       3.1062      2.00000
      9       3.1062      2.00000
     10       5.7553      0.00000
     11       6.6816      0.00000
     12       6.6816      0.00000
     13       8.2185      0.00000

 k-point     4 :       0.3750    0.0000    0.0000
  band No.  band energies     occupation 
      1     -42.8638      2.00000
      2     -42.8617      2.00000
      3     -20.8386      2.00000
      4     -20.8365      2.00000
      5     -20.8365      2.00000
      6      -4.9197      2.00000
      7       0.3387      2.00000
      8       2.8920      2.00000
      9       2.8920      2.00000
     10       5.8370      0.00000
     11       6.4971      0.00000
     12       6.4971      0.00000
     13       8.8616      0.00000

 k-point     5 :       0.5000    0.0000    0.0000
  band No.  band energies     occupation 
      1     -42.8627      2.00000
      2     -42.8627      2.00000
      3     -20.8390      2.00000
      4     -20.8366      2.00000
      5     -20.8366      2.00000
      6      -4.8097      2.00000
      7      -0.0125      2.00000
      8       2.8154      2.00000
      9       2.8154      2.00000
     10       5.8655      0.00000
     11       6.3811      0.00000
     12       6.3812      0.00000
     13       8.9672      0.00000

 k-point     6 :       0.0000    0.1250    0.0000
  band No.  band energies     occupation 
      1     -42.8651      2.00000
      2     -42.8604      2.00000
      3     -20.8366      2.00000
      4     -20.8364      2.00000
      5     -20.8364      2.00000
      6      -5.3239      2.00000
      7       2.6975      2.00000
      8       3.0902      2.00000
      9       3.0902      2.00000
     10       5.9791      0.00000
     11       6.1639      0.00000
     12       6.8623      0.00000
     13       6.8623      0.00000

 k-point     7 :       0.1250    0.1250    0.0000
  band No.  band energies     occupation 
      1     -42.8647      2.00000
      2     -42.8608      2.00000
      3     -20.8373      2.00000
      4     -20.8366      2.00000
      5     -20.8365      2.00000
      6      -5.1690      2.00000
      7       1.6553      2.00000
      8       2.7681      2.00000
      9       2.9203      2.00000
     10       6.0415      0.00000
     11       6.4438      0.00000
     12       7.1892      0.00000
     13       7.3189      0.00000

 k-point     8 :       0.2500    0.1250    0.0000
  band No.  band energies     occupation 
      1     -42.8640      2.00000
      2     -42.8615      2.00000
      3     -20.8382      2.00000
      4     -20.8367      2.00000
      5     -20.8366      2.00000
      6      -4.9469      2.00000
      7       0.6608      2.00000
      8       2.5863      2.00000
      9       2.6413      2.00000
     10       5.9353      0.00000
     11       6.6981      0.00000
     12       7.1794      0.00000
     13       7.7282      0.00000

 k-point     9 :       0.3750    0.1250    0.0000
  band No.  band energies     occupation 
      1     -42.8631      2.00000
      2     -42.8624      2.00000
      3     -20.8388      2.00000
      4     -20.8368      2.00000
      5     -20.8367      2.00000
      6      -4.7887      2.00000
      7       0.1302      2.00000
      8       2.3796      2.00000
      9       2.5938      2.00000
     10       5.9379      0.00000
     11       6.6699      0.00000
     12       6.8737      0.00000
     13       8.9966      0.00000

 k-point    10 :       0.5000    0.1250    0.0000
  band No.  band energies     occupation 
      1     -42.8634      2.00000
      2     -42.8621      2.00000
      3     -20.8387      2.00000
      4     -20.8369      2.00000
      5     -20.8366      2.00000
      6      -4.8248      2.00000
      7       0.2394      2.00000
      8       2.2604      2.00000
      9       2.7830      2.00000
     10       6.0684      0.00000
     11       6.7013      0.00000
     12       6.7505      0.00000
     13       9.1742      0.00000

 k-point    11 :      -0.3750    0.1250    0.0000
  band No.  band energies     occupation 
      1     -42.8642      2.00000
      2     -42.8613      2.00000
      3     -20.8379      2.00000
      4     -20.8368      2.00000
      5     -20.8364      2.00000
      6      -5.0223      2.00000
      7       0.9341      2.00000
      8       2.3468      2.00000
      9       3.0955      2.00000
     10       6.1214      0.00000
     11       6.8048      0.00000
     12       6.9408      0.00000
     13       8.0512      0.00000

 k-point    12 :      -0.2500    0.1250    0.0000
  band No.  band energies     occupation 
      1     -42.8648      2.00000
      2     -42.8606      2.00000
      3     -20.8371      2.00000
      4     -20.8366      2.00000
      5     -20.8363      2.00000
      6      -5.2331      2.00000
      7       1.9013      2.00000
      8       2.7269      2.00000
      9       3.3817      2.00000
     10       5.9349      0.00000
     11       6.5638      0.00000
     12       7.0576      0.00000
     13       7.2618      0.00000

 k-point    13 :       0.0000    0.2500    0.0000
  band No.  band energies     occupation 
      1     -42.8645      2.00000
      2     -42.8610      2.00000
      3     -20.8374      2.00000
      4     -20.8368      2.00000
      5     -20.8368      2.00000
      6      -5.0689      2.00000
      7       1.6355      2.00000
      8       2.4004      2.00000
      9       2.4005      2.00000
     10       5.5468      0.00000
     11       6.1162      0.00000
     12       8.1661      0.00000
     13       8.1661      0.00000

 k-point    14 :       0.1250    0.2500    0.0000
  band No.  band energies     occupation 
      1     -42.8640      2.00000
      2     -42.8614      2.00000
      3     -20.8380      2.00000
      4     -20.8370      2.00000
      5     -20.8370      2.00000
      6      -4.8922      2.00000
      7       0.9992      2.00000
      8       2.0928      2.00000
      9       2.1865      2.00000
     10       5.2834      0.00000
     11       6.4195      0.00000
     12       8.2045      0.00000
     13       8.4042      0.00000

 k-point    15 :       0.2500    0.2500    0.0000
  band No.  band energies     occupation 
      1     -42.8633      2.00000
      2     -42.8621      2.00000
      3     -20.8384      2.00000
      4     -20.8373      2.00000
      5     -20.8370      2.00000
      6      -4.7348      2.00000
      7       0.5032      2.00000
      8       1.6853      2.00000
      9       2.1834      2.00000
     10       5.3852      0.00000
     11       7.4210      0.00000
     12       8.0600      0.00000
     13       8.0821      0.00000

 k-point    16 :       0.3750    0.2500    0.0000
  band No.  band energies     occupation 
      1     -42.8629      2.00000
      2     -42.8626      2.00000
      3     -20.8384      2.00000
      4     -20.8375      2.00000
      5     -20.8368      2.00000
      6      -4.7107      2.00000
      7       0.4205      2.00000
      8       1.4364      2.00000
      9       2.3906      2.00000
     10       5.6585      0.00000
     11       7.8168      0.00000
     12       7.8625      0.00000
     13       8.9738      0.00000

 k-point    17 :       0.5000    0.2500    0.0000
  band No.  band energies     occupation 
      1     -42.8636      2.00000
      2     -42.8619      2.00000
      3     -20.8382      2.00000
      4     -20.8374      2.00000
      5     -20.8366      2.00000
      6      -4.8396      2.00000
      7       0.6569      2.00000
      8       1.6113      2.00000
      9       2.7521      2.00000
     10       6.0280      0.00000
     11       7.5098      0.00000
     12       7.6937      0.00000
     13       7.8481      0.00000

 k-point    18 :       0.0000    0.3750    0.0000
  band No.  band energies     occupation 
      1     -42.8639      2.00000
      2     -42.8616      2.00000
      3     -20.8381      2.00000
      4     -20.8372      2.00000
      5     -20.8372      2.00000
      6      -4.7810      2.00000
      7       0.9000      2.00000
      8       1.9218      2.00000
      9       1.9218      2.00000
     10       4.5820      0.00000
     11       6.0721      0.00000
     12       9.5537      0.00000
     13       9.5537      0.00000

 k-point    19 :       0.1250    0.3750    0.0000
  band No.  band energies     occupation 
      1     -42.8636      2.00000
      2     -42.8619      2.00000
      3     -20.8383      2.00000
      4     -20.8375      2.00000
      5     -20.8373      2.00000
      6      -4.6754      2.00000
      7       0.7201      2.00000
      8       1.5056      2.00000
      9       1.8688      2.00000
     10       4.6717      0.00000
     11       6.3693      0.00000
     12       9.6384      0.00000
     13       9.6606      0.00000

 k-point    20 :       0.2500    0.3750    0.0000
  band No.  band energies     occupation 
      1     -42.8631      2.00000
      2     -42.8623      2.00000
      3     -20.8381      2.00000
      4     -20.8379      2.00000
      5     -20.8371      2.00000
      6      -4.6453      2.00000
      7       0.8790      2.00000
      8       0.8800      2.00000
      9       2.0383      2.00000
     10       5.1530      0.00000
     11       7.3772      0.00000
     12       9.1445      0.00000
     13       9.2066      0.00000

 k-point    21 :       0.0000    0.5000    0.0000
  band No.  band energies     occupation 
      1     -42.8637      2.00000
      2     -42.8618      2.00000
      3     -20.8384      2.00000
      4     -20.8374      2.00000
      5     -20.8374      2.00000
      6      -4.6490      2.00000
      7       0.6324      2.00000
      8       1.7558      2.00000
      9       1.7558      2.00000
     10       4.2177      0.00000
     11       6.0549      0.00000
     12      10.7896      0.00000
     13      10.7896      0.00000

 k-point    22 :       0.1250    0.1250    0.1250
  band No.  band energies     occupation 
      1     -42.8642      2.00000
      2     -42.8612      2.00000
      3     -20.8378      2.00000
      4     -20.8370      2.00000
      5     -20.8366      2.00000
      6      -5.0012      2.00000
      7       1.1404      2.00000
      8       2.1190      2.00000
      9       2.7467      2.00000
     10       6.0948      0.00000
     11       6.6554      0.00000
     12       6.9839      0.00000
     13       8.2177      0.00000

 k-point    23 :       0.2500    0.1250    0.1250
  band No.  band energies     occupation 
      1     -42.8635      2.00000
      2     -42.8619      2.00000
      3     -20.8383      2.00000
      4     -20.8372      2.00000
      5     -20.8368      2.00000
      6      -4.8095      2.00000
      7       0.5546      2.00000
      8       1.8187      2.00000
      9       2.4323      2.00000
     10       6.1889      0.00000
     11       6.6517      0.00000
     12       7.5443      0.00000
     13       8.2957      0.00000

 k-point    24 :       0.3750    0.1250    0.1250
  band No.  band energies     occupation 
      1     -42.8627      2.00000
      2     -42.8627      2.00000
      3     -20.8386      2.00000
      4     -20.8373      2.00000
      5     -20.8369      2.00000
      6      -4.7209      2.00000
      7       0.2987      2.00000
      8       1.7741      2.00000
      9       2.2633      2.00000
     10       6.3221      0.00000
     11       6.3957      0.00000
     12       8.1145      0.00000
     13       9.0619      0.00000

 k-point    25 :       0.1250    0.2500    0.1250
  band No.  band energies     occupation 
      1     -42.8636      2.00000
      2     -42.8619      2.00000
      3     -20.8382      2.00000
      4     -20.8374      2.00000
      5     -20.8371      2.00000
      6      -4.7485      2.00000
      7       0.7775      2.00000
      8       1.6804      2.00000
      9       1.8953      2.00000
     10       5.3205      0.00000
     11       6.6177      0.00000
     12       7.9888      0.00000
     13       9.6644      0.00000

 k-point    26 :       0.2500    0.2500    0.1250
  band No.  band energies     occupation 
      1     -42.8631      2.00000
      2     -42.8624      2.00000
      3     -20.8382      2.00000
      4     -20.8377      2.00000
      5     -20.8372      2.00000
      6      -4.6573      2.00000
      7       0.6914      2.00000
      8       1.2681      2.00000
      9       1.7794      2.00000
     10       5.7596      0.00000
     11       7.4980      0.00000
     12       7.5795      0.00000
     13       9.2380      0.00000

 k-point    27 :       0.3750    0.2500    0.1250
  band No.  band energies     occupation 
      1     -42.8630      2.00000
      2     -42.8625      2.00000
      3     -20.8382      2.00000
      4     -20.8378      2.00000
      5     -20.8370      2.00000
      6      -4.6848      2.00000
      7       0.6432      2.00000
      8       1.2287      2.00000
      9       2.0330      2.00000
     10       6.1990      0.00000
     11       7.0282      0.00000
     12       7.9592      0.00000
     13       9.0179      0.00000

 k-point    28 :       0.1250    0.3750    0.1250
  band No.  band energies     occupation 
      1     -42.8634      2.00000
      2     -42.8621      2.00000
      3     -20.8383      2.00000
      4     -20.8376      2.00000
      5     -20.8374      2.00000
      6      -4.6367      2.00000
      7       0.7544      2.00000
      8       1.4592      2.00000
      9       1.5263      2.00000
     10       5.0285      0.00000
     11       6.5983      0.00000
     12       8.9909      0.00000
     13       9.7874      0.00000

 k-point    29 :       0.2500    0.2500    0.2500
  band No.  band energies     occupation 
      1     -42.8628      2.00000
      2     -42.8628      2.00000
      3     -20.8379      2.00000
      4     -20.8379      2.00000
      5     -20.8374      2.00000
      6      -4.6243      2.00000
      7       1.0921      2.00000
      8       1.0921      2.00000
      9       1.2343      2.00000
     10       6.6531      0.00000
     11       6.9390      0.00000
     12       7.9637      0.00000
     13       7.9637      0.00000


--------------------------------------------------------------------------------------------------------


 soft charge-density along one line, spin component           1
         0         1         2         3         4         5         6         7         8         9
 total charge-density along one line
 
 pseudopotential strength for first ion, spin component:           1
-39.149   3.329  -0.000  -0.000   0.000
  3.329  -9.719  -0.000  -0.000   0.000
 -0.000  -0.000   0.161  -0.000   0.000
 -0.000  -0.000  -0.000   0.161   0.000
  0.000   0.000   0.000   0.000   0.161
 total augmentation occupancy for first ion, spin component:           1
  2.000   0.002   0.000  -0.000  -0.000
  0.002   0.705   0.000  -0.000  -0.000
 -0.000   0.000   0.025  -0.000  -0.000
 -0.000  -0.000   0.000   0.025  -0.000
 -0.000   0.000  -0.000  -0.000   0.025


------------------------ aborting loop because EDIFF is reached ----------------------------------------


    CHARGE:  cpu time    0.0176: real time    0.0176
    FORLOC:  cpu time    0.0039: real time    0.0039
    FORNL :  cpu time    0.0190: real time    0.0190
    STRESS:  cpu time    0.0932: real time    0.0932
    FORCOR:  cpu time    0.0339: real time    0.0339
    FORHAR:  cpu time    0.0100: real time    0.0100
    MIXING:  cpu time    0.0021: real time    0.0021
    OFIELD:  cpu time    0.0001: real time    0.0001

  FORCE on cell =-STRESS in cart. coord.  units (eV):
  Direction    XX          YY          ZZ          XY          YZ          ZX
  --------------------------------------------------------------------------------------
  Alpha Z    10.58174    10.58174    10.58174
  Ewald    -222.24204  -222.24204  -222.24204     0.00000     0.00000     0.00015
  Hartree   106.12226   106.12226   106.12226    -0.00000     0.00000     0.00006
  E(xc)     -85.34085   -85.34087   -85.34097    -0.00000     0.00000     0.00006
  Local     -61.62848   -61.62832   -61.62809    -0.00000    -0.00000    -0.00043
  n-local    28.57403    29.09656    28.83517     1.86558    -0.83565     1.40102
  augment    61.32241    61.32225    61.32204    -0.00000     0.00000     0.00016
  Kinetic   163.03766   163.74797   160.30661     2.78870    -1.23363     1.55417
  Fock        0.00000     0.00000     0.00000     0.00000     0.00000     0.00000
  -------------------------------------------------------------------------------------
  Total       0.01434     0.01434     0.01434    -0.00000    -0.00000     0.00000
  in kB       0.28739     0.28739     0.28739    -0.00000    -0.00000     0.00000
  external pressure =        0.29 kB  Pullay stress =        0.00 kB


 VOLUME and BASIS-vectors are now :
 -----------------------------------------------------------------------------
  energy-cutoff  :      520.00
  volume of cell :       79.92
      direct lattice vectors                 reciprocal lattice vectors
     3.418833342 -3.418833342  0.000000000     0.146248720 -0.146248720 -0.146248720
    -3.418833342  0.000000000 -3.418833342     0.000000000  0.000000000 -0.292497440
     3.418833342  3.418833342  0.000000000     0.146248720  0.146248720 -0.146248720

  length of vectors
     4.834960480  4.834960480  4.834960480     0.253310213  0.292497440  0.253310213


 FORCES acting on ions
    electron-ion (+dipol)            ewald-force                    non-local-force                 convergence-correction
 -----------------------------------------------------------------------------------------------
   0.167E-02 -.168E-02 -.169E-02   0.142E-03 -.165E-03 -.110E-03   0.190E-18 -.133E-17 0.000E+00   -.715E-09 0.555E-08 0.533E-09
   0.167E-02 0.168E-02 -.169E-02   0.142E-03 0.165E-03 -.110E-03   -.114E-17 0.379E-18 0.651E-18   -.715E-09 -.555E-08 0.533E-09
   -.364E-03 0.117E-11 -.411E-04   -.246E-03 -.864E-14 0.128E-03   0.000E+00 0.000E+00 0.000E+00   0.704E-08 -.120E-13 -.191E-08
   -.482E-05 0.573E-11 -.293E-04   -.382E-04 -.290E-15 0.917E-04   -.318E-21 0.000E+00 0.000E+00   -.831E-09 0.191E-14 -.389E-09
 -----------------------------------------------------------------------------------------------
   0.298E-02 -.826E-10 -.346E-02   -.835E-16 0.407E-15 -.531E-15   -.949E-18 -.949E-18 0.651E-18   0.477E-08 -.103E-13 -.124E-08
 
 
 POSITION                                       TOTAL-FORCE (eV/Angst)
 -----------------------------------------------------------------------------------
      1.70941     -1.70941     -1.70941        -0.000000     -0.000000      0.000000
      1.70941      1.70941     -1.70941         0.000000      0.000000      0.000000
      3.41884      0.00000      0.00000        -0.000000      0.000000      0.000000
      0.00000      0.00000      0.00000        -0.000000     -0.000000      0.000000
 -----------------------------------------------------------------------------------
    total drift:                                0.002977     -0.000000     -0.003457


--------------------------------------------------------------------------------------------------------



  FREE ENERGIE OF THE ION-ELECTRON SYSTEM (eV)
  ---------------------------------------------------
  free  energy   TOTEN  =       -11.59115463 eV

  energy  without entropy=      -11.59115463  energy(sigma->0) =      -11.59115463
 


--------------------------------------------------------------------------------------------------------


    POTLOK:  cpu time    0.0362: real time    0.0362


--------------------------------------------------------------------------------------------------------


     LOOP+:  cpu time    2.7808: real time    2.7970
    4ORBIT:  cpu time    0.0000: real time    0.0000

 total amount of memory used by VASP MPI-rank0    40969. kBytes
=======================================================================

   base      :      30000. kBytes
   nonl-proj :       2815. kBytes
   fftplans  :       2164. kBytes
   grid      :       4040. kBytes
   one-center:          8. kBytes
   wavefun   :       1942. kBytes
 
  
  
 General timing and accounting informations for this job:
 ========================================================
  
                  Total CPU time used (sec):        3.319
                            User time (sec):        3.211
                          System time (sec):        0.109
                         Elapsed time (sec):        3.393
  
                   Maximum memory used (kb):       82372.
                   Average memory used (kb):           0.
  
                          Minor page faults:        17943
                          Major page faults:            0
                 Voluntary context switches:          311
