<?xml version="1.0" encoding="ISO-8859-1"?>
<modeling>
 <generator>
  <i name="program" type="string">vasp </i>
  <i name="version" type="string">5.4.4.18Apr17-6-g9f103f2a35  </i>
  <i name="subversion" type="string">(build Jun 23 2019 17:35:09) complex            parallel </i>
  <i name="platform" type="string">LinuxIFC </i>
  <i name="date" type="string">2020 01 15 </i>
  <i name="time" type="string">15:43:03 </i>
 </generator>
 <incar>
  <i type="int" name="ISTART">     0</i>
  <i type="string" name="PREC">acc</i>
  <i type="string" name="ALGO"> Normal</i>
  <i type="int" name="ISPIN">     1</i>
  <i type="int" name="NELM">   150</i>
  <i type="int" name="NELMIN">     5</i>
  <i type="int" name="IBRION">    -1</i>
  <i name="EDIFF">      0.00000001</i>
  <i type="int" name="NSW">     0</i>
  <i type="int" name="ISIF">     3</i>
  <i name="ENCUT">    520.00000000</i>
  <i type="logical" name="LREAL"> F  </i>
  <i type="logical" name="LPLANE"> T  </i>
  <i type="int" name="ISMEAR">     0</i>
  <i name="SIGMA">      0.05000000</i>
  <i type="logical" name="LWAVE"> F  </i>
  <i type="logical" name="LCHARG"> F  </i>
  <v type="int" name="KPOINT_BSE">    -1     0     0     0</v>
  <i type="int" name="NELM">   150</i>
  <i type="string" name="GGA"> PE</i>
 </incar>
 <structure name="primitive_cell" >
  <crystal>
   <varray name="basis" >
    <v>       3.41883334      -3.41883334       0.00000000 </v>
    <v>      -3.41883334       0.00000000      -3.41883334 </v>
    <v>       3.41883334       3.41883334       0.00000000 </v>
   </varray>
   <i name="volume">     79.92152976 </i>
   <varray name="rec_basis" >
    <v>       0.14624872      -0.14624872      -0.14624872 </v>
    <v>       0.00000000       0.00000000      -0.29249744 </v>
    <v>       0.14624872       0.14624872      -0.14624872 </v>
   </varray>
  </crystal>
  <varray name="positions" >
   <v>      -0.25000178       0.49999882       0.24999941 </v>
   <v>       0.00000000       0.00000000       0.00000000 </v>
   <v>      -0.49999970       0.00000000      -0.49999970 </v>
   <v>       0.24999941       0.49999882      -0.25000178 </v>
  </varray>
 </structure>
 <varray name="primitive_index" >
  <v type="int" >        1 </v>
  <v type="int" >        4 </v>
  <v type="int" >        3 </v>
  <v type="int" >        2 </v>
 </varray>
 <kpoints>
  <generation param="Gamma">
   <v type="int" name="divisions">       8        8        8 </v>
   <v name="usershift">      0.00000000       0.00000000       0.00000000 </v>
   <v name="genvec1">      0.12500000       0.00000000       0.00000000 </v>
   <v name="genvec2">      0.00000000       0.12500000       0.00000000 </v>
   <v name="genvec3">      0.00000000       0.00000000       0.12500000 </v>
   <v name="shift">      0.00000000       0.00000000       0.00000000 </v>
  </generation>
  <varray name="kpointlist" >
   <v>       0.00000000       0.00000000       0.00000000 </v>
   <v>       0.12500000       0.00000000       0.00000000 </v>
   <v>       0.25000000       0.00000000       0.00000000 </v>
   <v>       0.37500000       0.00000000       0.00000000 </v>
   <v>       0.50000000       0.00000000       0.00000000 </v>
   <v>       0.00000000       0.12500000       0.00000000 </v>
   <v>       0.12500000       0.12500000       0.00000000 </v>
   <v>       0.25000000       0.12500000       0.00000000 </v>
   <v>       0.37500000       0.12500000       0.00000000 </v>
   <v>       0.50000000       0.12500000       0.00000000 </v>
   <v>      -0.37500000       0.12500000       0.00000000 </v>
   <v>      -0.25000000       0.12500000       0.00000000 </v>
   <v>       0.00000000       0.25000000       0.00000000 </v>
   <v>       0.12500000       0.25000000       0.00000000 </v>
   <v>       0.25000000       0.25000000       0.00000000 </v>
   <v>       0.37500000       0.25000000       0.00000000 </v>
   <v>       0.50000000       0.25000000       0.00000000 </v>
   <v>       0.00000000       0.37500000       0.00000000 </v>
   <v>       0.12500000       0.37500000       0.00000000 </v>
   <v>       0.25000000       0.37500000       0.00000000 </v>
   <v>       0.00000000       0.50000000       0.00000000 </v>
   <v>       0.12500000       0.12500000       0.12500000 </v>
   <v>       0.25000000       0.12500000       0.12500000 </v>
   <v>       0.37500000       0.12500000       0.12500000 </v>
   <v>       0.12500000       0.25000000       0.12500000 </v>
   <v>       0.25000000       0.25000000       0.12500000 </v>
   <v>       0.37500000       0.25000000       0.12500000 </v>
   <v>       0.12500000       0.37500000       0.12500000 </v>
   <v>       0.25000000       0.25000000       0.25000000 </v>
  </varray>
  <varray name="weights" >
   <v>       0.00195312 </v>
   <v>       0.01562500 </v>
   <v>       0.01562500 </v>
   <v>       0.01562500 </v>
   <v>       0.00781250 </v>
   <v>       0.01171875 </v>
   <v>       0.04687500 </v>
   <v>       0.04687500 </v>
   <v>       0.04687500 </v>
   <v>       0.04687500 </v>
   <v>       0.04687500 </v>
   <v>       0.02343750 </v>
   <v>       0.01171875 </v>
   <v>       0.04687500 </v>
   <v>       0.04687500 </v>
   <v>       0.04687500 </v>
   <v>       0.02343750 </v>
   <v>       0.01171875 </v>
   <v>       0.04687500 </v>
   <v>       0.02343750 </v>
   <v>       0.00585938 </v>
   <v>       0.04687500 </v>
   <v>       0.09375000 </v>
   <v>       0.04687500 </v>
   <v>       0.04687500 </v>
   <v>       0.09375000 </v>
   <v>       0.04687500 </v>
   <v>       0.02343750 </v>
   <v>       0.01171875 </v>
  </varray>
 </kpoints>
 <parameters>
  <separator name="general" >
   <i type="string" name="SYSTEM">unknown system</i>
   <i type="logical" name="LCOMPAT"> F  </i>
  </separator>
  <separator name="electronic" >
   <i type="string" name="PREC">acc</i>
   <i name="ENMAX">    520.00000000</i>
   <i name="ENAUG">    628.94500000</i>
   <i name="EDIFF">      0.00000001</i>
   <i type="int" name="IALGO">    38</i>
   <i type="int" name="IWAVPR">    10</i>
   <i type="int" name="NBANDS">    13</i>
   <i name="NELECT">     18.00000000</i>
   <i type="int" name="TURBO">     0</i>
   <i type="int" name="IRESTART">     0</i>
   <i type="int" name="NREBOOT">     0</i>
   <i type="int" name="NMIN">     0</i>
   <i name="EREF">      0.00000000</i>
   <separator name="electronic smearing" >
    <i type="int" name="ISMEAR">     0</i>
    <i name="SIGMA">      0.05000000</i>
    <i name="KSPACING">      0.50000000</i>
    <i type="logical" name="KGAMMA"> T  </i>
   </separator>
   <separator name="electronic projectors" >
    <i type="logical" name="LREAL"> F  </i>
    <v name="ROPT">      0.00000000      0.00000000      0.00000000</v>
    <i type="int" name="LMAXPAW">  -100</i>
    <i type="int" name="LMAXMIX">     2</i>
    <i type="logical" name="NLSPLINE"> F  </i>
   </separator>
   <separator name="electronic startup" >
    <i type="int" name="ISTART">     0</i>
    <i type="int" name="ICHARG">     2</i>
    <i type="int" name="INIWAV">     1</i>
   </separator>
   <separator name="electronic spin" >
    <i type="int" name="ISPIN">     1</i>
    <i type="logical" name="LNONCOLLINEAR"> F  </i>
    <v name="MAGMOM">      1.00000000      1.00000000      1.00000000      1.00000000</v>
    <i name="NUPDOWN">     -1.00000000</i>
    <i type="logical" name="LSORBIT"> F  </i>
    <v name="SAXIS">      0.00000000      0.00000000      1.00000000</v>
    <i type="logical" name="LSPIRAL"> F  </i>
    <v name="QSPIRAL">      0.00000000      0.00000000      0.00000000</v>
    <i type="logical" name="LZEROZ"> F  </i>
   </separator>
   <separator name="electronic exchange-correlation" >
    <i type="logical" name="LASPH"> F  </i>
    <i type="logical" name="LMETAGGA"> F  </i>
   </separator>
   <separator name="electronic convergence" >
    <i type="int" name="NELM">   150</i>
    <i type="int" name="NELMDL">    -5</i>
    <i type="int" name="NELMIN">     5</i>
    <i name="ENINI">    520.00000000</i>
    <separator name="electronic convergence detail" >
     <i type="logical" name="LDIAG"> T  </i>
     <i type="logical" name="LSUBROT"> F  </i>
     <i name="WEIMIN">      0.00000000</i>
     <i name="EBREAK">      0.00000000</i>
     <i name="DEPER">      0.30000000</i>
     <i type="int" name="NRMM">     4</i>
     <i name="TIME">      0.40000000</i>
    </separator>
   </separator>
   <separator name="electronic mixer" >
    <i name="AMIX">      0.40000000</i>
    <i name="BMIX">      1.00000000</i>
    <i name="AMIN">      0.10000000</i>
    <i name="AMIX_MAG">      1.60000000</i>
    <i name="BMIX_MAG">      1.00000000</i>
    <separator name="electronic mixer details" >
     <i type="int" name="IMIX">     4</i>
     <i type="logical" name="MIXFIRST"> F  </i>
     <i type="int" name="MAXMIX">   -45</i>
     <i name="WC">    100.00000000</i>
     <i type="int" name="INIMIX">     1</i>
     <i type="int" name="MIXPRE">     1</i>
     <i type="int" name="MREMOVE">     5</i>
    </separator>
   </separator>
   <separator name="electronic dipolcorrection" >
    <i type="logical" name="LDIPOL"> F  </i>
    <i type="logical" name="LMONO"> F  </i>
    <i type="int" name="IDIPOL">     0</i>
    <i name="EPSILON">      1.00000000</i>
    <v name="DIPOL">   -100.00000000   -100.00000000   -100.00000000</v>
    <i name="EFIELD">      0.00000000</i>
   </separator>
  </separator>
  <separator name="grids" >
   <i type="int" name="NGX">    36</i>
   <i type="int" name="NGY">    36</i>
   <i type="int" name="NGZ">    36</i>
   <i type="int" name="NGXF">    72</i>
   <i type="int" name="NGYF">    72</i>
   <i type="int" name="NGZF">    72</i>
   <i type="logical" name="ADDGRID"> F  </i>
  </separator>
  <separator name="ionic" >
   <i type="int" name="NSW">     0</i>
   <i type="int" name="IBRION">    -1</i>
   <i type="int" name="MDALGO">     0</i>
   <i type="int" name="ISIF">     3</i>
   <i name="PSTRESS">      0.00000000</i>
   <i name="EDIFFG">      0.00000010</i>
   <i type="int" name="NFREE">     0</i>
   <i name="POTIM">      0.50000000</i>
   <i name="SMASS">     -3.00000000</i>
   <i name="SCALEE">      1.00000000</i>
  </separator>
  <separator name="ionic md" >
   <i name="TEBEG">      0.00010000</i>
   <i name="TEEND">      0.00010000</i>
   <i type="int" name="NBLOCK">     1</i>
   <i type="int" name="KBLOCK">     1</i>
   <i type="int" name="NPACO">   256</i>
   <i name="APACO">     16.00000000</i>
  </separator>
  <separator name="symmetry" >
   <i type="int" name="ISYM">     2</i>
   <i name="SYMPREC">      0.00001000</i>
  </separator>
  <separator name="dos" >
   <i type="int" name="LORBIT">     0</i>
   <v name="RWIGS">     -1.00000000     -1.00000000     -1.00000000</v>
   <i type="int" name="NEDOS">   301</i>
   <i name="EMIN">     10.00000000</i>
   <i name="EMAX">    -10.00000000</i>
   <i name="EFERMI">      0.00000000</i>
  </separator>
  <separator name="writing" >
   <i type="int" name="NWRITE">     2</i>
   <i type="logical" name="LWAVE"> F  </i>
   <i type="logical" name="LDOWNSAMPLE"> F  </i>
   <i type="logical" name="LCHARG"> F  </i>
   <i type="logical" name="LPARD"> F  </i>
   <i type="logical" name="LVTOT"> F  </i>
   <i type="logical" name="LVHAR"> F  </i>
   <i type="logical" name="LELF"> F  </i>
   <i type="logical" name="LOPTICS"> F  </i>
   <v name="STM">      0.00000000      0.00000000      0.00000000      0.00000000      0.00000000      0.00000000      0.00000000</v>
  </separator>
  <separator name="performance" >
   <i type="int" name="NPAR">     1</i>
   <i type="int" name="NSIM">     4</i>
   <i type="int" name="NBLK">    -1</i>
   <i type="logical" name="LPLANE"> T  </i>
   <i type="logical" name="LSCALAPACK"> T  </i>
   <i type="logical" name="LSCAAWARE"> F  </i>
   <i type="logical" name="LSCALU"> F  </i>
   <i type="logical" name="LASYNC"> F  </i>
   <i type="logical" name="LORBITALREAL"> F  </i>
  </separator>
  <separator name="miscellaneous" >
   <i type="int" name="IDIOT">     3</i>
   <i type="int" name="ISPECIAL">     0</i>
   <i type="logical" name="LMUSIC"> F  </i>
   <v name="POMASS">      7.01000000     22.99000000    121.75000000</v>
   <v name="DARWINR">      0.00000000      0.00000000      0.00000000</v>
   <v name="DARWINV">      1.00000000      1.00000000      1.00000000</v>
   <i type="logical" name="LCORR"> T  </i>
  </separator>
  <i type="logical" name="GGA_COMPAT"> T  </i>
  <i type="logical" name="LBERRY"> F  </i>
  <i type="int" name="ICORELEVEL">     0</i>
  <i type="logical" name="LDAU"> F  </i>
  <i type="int" name="I_CONSTRAINED_M">     0</i>
  <separator name="electronic exchange-correlation" >
   <i type="string" name="GGA">PE</i>
   <i type="int" name="VOSKOWN">     0</i>
   <i type="logical" name="LHFCALC"> F  </i>
   <i type="string" name="PRECFOCK"></i>
   <i type="logical" name="LSYMGRAD"> F  </i>
   <i type="logical" name="LHFONE"> F  </i>
   <i type="logical" name="LRHFCALC"> F  </i>
   <i type="logical" name="LTHOMAS"> F  </i>
   <i type="logical" name="LMODELHF"> F  </i>
   <i name="ENCUT4O">     -1.00000000</i>
   <i type="int" name="EXXOEP">     0</i>
   <i type="int" name="FOURORBIT">     0</i>
   <i name="AEXX">      0.00000000</i>
   <i name="HFALPHA">      0.00000000</i>
   <i name="MCALPHA">      0.00000000</i>
   <i name="ALDAX">      1.00000000</i>
   <i name="AGGAX">      1.00000000</i>
   <i name="ALDAC">      1.00000000</i>
   <i name="AGGAC">      1.00000000</i>
   <i type="int" name="NKREDX">     1</i>
   <i type="int" name="NKREDY">     1</i>
   <i type="int" name="NKREDZ">     1</i>
   <i type="logical" name="SHIFTRED"> F  </i>
   <i type="logical" name="ODDONLY"> F  </i>
   <i type="logical" name="EVENONLY"> F  </i>
   <i type="int" name="LMAXFOCK">     0</i>
   <i type="int" name="NMAXFOCKAE">     0</i>
   <i type="logical" name="LFOCKAEDFT"> F  </i>
   <i name="HFSCREEN">      0.00000000</i>
   <i name="HFSCREENC">      0.00000000</i>
   <i type="int" name="NBANDSGWLOW">     0</i>
  </separator>
  <separator name="vdW DFT" >
   <i type="logical" name="LUSE_VDW"> F  </i>
   <i name="Zab_VDW">     -0.84910000</i>
   <i name="PARAM1">      0.12340000</i>
   <i name="PARAM2">      1.00000000</i>
   <i name="PARAM3">      0.00000000</i>
  </separator>
  <separator name="model GW" >
   <i type="int" name="MODEL_GW">     0</i>
   <i name="MODEL_EPS0">     11.98822946</i>
   <i name="MODEL_ALPHA">      1.00000000</i>
  </separator>
  <separator name="linear response parameters" >
   <i type="logical" name="LEPSILON"> F  </i>
   <i type="logical" name="LRPA"> F  </i>
   <i type="logical" name="LNABLA"> F  </i>
   <i type="logical" name="LVEL"> F  </i>
   <i type="int" name="KINTER">     0</i>
   <i name="CSHIFT">      0.10000000</i>
   <i name="OMEGAMAX">     -1.00000000</i>
   <i name="DEG_THRESHOLD">      0.00200000</i>
   <i name="RTIME">     -0.10000000</i>
   <i name="WPLASMAI">      0.00000000</i>
   <v name="DFIELD">      0.00000000      0.00000000      0.00000000</v>
   <v name="WPLASMA">      0.00000000      0.00000000      0.00000000      0.00000000      0.00000000      0.00000000      0.00000000      0.00000000      0.00000000</v>
  </separator>
  <separator name="orbital magnetization" >
   <i type="logical" name="NUCIND"> F  </i>
   <v name="MAGPOS">      0.00000000      0.00000000      0.00000000</v>
   <i type="logical" name="LNICSALL"> T  </i>
   <i type="logical" name="ORBITALMAG"> F  </i>
   <i type="logical" name="LMAGBLOCH"> F  </i>
   <i type="logical" name="LCHIMAG"> F  </i>
   <i type="logical" name="LGAUGE"> T  </i>
   <i type="int" name="MAGATOM">     0</i>
   <v name="MAGDIPOL">      0.00000000      0.00000000      0.00000000</v>
   <v name="AVECCONST">      0.00000000      0.00000000      0.00000000</v>
  </separator>
  <separator name="response functions" >
   <i type="logical" name="LADDER"> F  </i>
   <i type="logical" name="LRPAFORCE"> F  </i>
   <i type="logical" name="LFXC"> F  </i>
   <i type="logical" name="LHARTREE"> T  </i>
   <i type="int" name="IBSE">     0</i>
   <v type="int" name="KPOINT">    -1     0     0     0</v>
   <i type="logical" name="LTCTE"> F  </i>
   <i type="logical" name="LTETE"> F  </i>
   <i type="logical" name="LTRIPLET"> F  </i>
   <i type="logical" name="LFXCEPS"> F  </i>
   <i type="logical" name="LFXHEG"> F  </i>
   <i type="int" name="NATURALO">     2</i>
   <i type="logical" name="L2ORDER"> F  </i>
   <i type="logical" name="LMP2LT"> F  </i>
   <i type="logical" name="LUSEW"> F  </i>
   <i name="ENCUTGW">     -2.00000000</i>
   <i name="ENCUTGWSOFT">     -2.00000000</i>
   <i name="ENCUTLF">     -1.00000000</i>
   <i type="int" name="LMAXMP2">    -1</i>
   <i name="SCISSOR">      0.00000000</i>
   <i type="int" name="NOMEGA">     0</i>
   <i type="int" name="NOMEGAR">     0</i>
   <i type="int" name="NBANDSGW">    -1</i>
   <i type="int" name="NBANDSO">    -1</i>
   <i type="int" name="NBANDSV">    -1</i>
   <i type="int" name="NELM">   150</i>
   <i type="int" name="NELMHF">     1</i>
   <i type="int" name="DIM">     3</i>
   <i type="int" name="ANTIRES">     0</i>
   <i name="OMEGAMAX">    -30.00000000</i>
   <i name="OMEGAMIN">    -30.00000000</i>
   <i name="OMEGATL">   -200.00000000</i>
   <i type="int" name="OMEGAGRID">   140</i>
   <i name="CSHIFT">     -0.10000000</i>
   <i type="logical" name="SELFENERGY"> F  </i>
   <i type="logical" name="LSPECTRAL"> F  </i>
   <i type="logical" name="LSPECTRALGW"> F  </i>
   <i type="logical" name="LSINGLES"> F  </i>
   <i type="logical" name="LFERMIGW"> F  </i>
   <i type="logical" name="ODDONLYGW"> F  </i>
   <i type="logical" name="EVENONLYGW"> F  </i>
   <i type="int" name="NKREDLFX">     1</i>
   <i type="int" name="NKREDLFY">     1</i>
   <i type="int" name="NKREDLFZ">     1</i>
   <i type="int" name="MAXMEM">  2800</i>
   <i type="int" name="TELESCOPE">     0</i>
   <i type="int" name="TAUPAR">     1</i>
   <i type="int" name="OMEGAPAR">    -1</i>
   <i name="LAMBDA">      1.00000000</i>
  </separator>
  <separator name="External order field" >
   <i name="OFIELD_KAPPA">      0.00000000</i>
   <v name="OFIELD_K">      0.00000000      0.00000000      0.00000000</v>
   <i name="OFIELD_Q6_NEAR">      0.00000000</i>
   <i name="OFIELD_Q6_FAR">      0.00000000</i>
   <i name="OFIELD_A">      0.00000000</i>
  </separator>
 </parameters>
 <atominfo>
  <atoms>       4 </atoms>
  <types>       3 </types>
  <array name="atoms" >
   <dimension dim="1">ion</dimension>
   <field type="string">element</field>
   <field type="int">atomtype</field>
   <set>
    <rc><c>Li</c><c>   1</c></rc>
    <rc><c>Li</c><c>   1</c></rc>
    <rc><c>Na</c><c>   2</c></rc>
    <rc><c>Sb</c><c>   3</c></rc>
   </set>
  </array>
  <array name="atomtypes" >
   <dimension dim="1">type</dimension>
   <field type="int">atomspertype</field>
   <field type="string">element</field>
   <field>mass</field>
   <field>valence</field>
   <field type="string">pseudopotential</field>
   <set>
    <rc><c>   2</c><c>Li</c><c>      7.01000000</c><c>      3.00000000</c><c>  PAW_PBE Li_sv 10Sep2004               </c></rc>
    <rc><c>   1</c><c>Na</c><c>     22.99000000</c><c>      7.00000000</c><c>  PAW_PBE Na_pv 19Sep2006               </c></rc>
    <rc><c>   1</c><c>Sb</c><c>    121.75000000</c><c>      5.00000000</c><c>  PAW_PBE Sb 06Sep2000                  </c></rc>
   </set>
  </array>
 </atominfo>
 <structure name="initialpos" >
  <crystal>
   <varray name="basis" >
    <v>       3.41883334      -3.41883334       0.00000000 </v>
    <v>      -3.41883334       0.00000000      -3.41883334 </v>
    <v>       3.41883334       3.41883334       0.00000000 </v>
   </varray>
   <i name="volume">     79.92152976 </i>
   <varray name="rec_basis" >
    <v>       0.14624872      -0.14624872      -0.14624872 </v>
    <v>       0.00000000       0.00000000      -0.29249744 </v>
    <v>       0.14624872       0.14624872      -0.14624872 </v>
   </varray>
  </crystal>
  <varray name="positions" >
   <v>       0.74999822       0.49999882       0.24999941 </v>
   <v>       0.24999941       0.49999882       0.74999822 </v>
   <v>       0.50000030       0.00000000       0.50000030 </v>
   <v>       0.00000000       0.00000000       0.00000000 </v>
  </varray>
 </structure>
 <calculation>
  <scstep>
   <time name="dav">    0.10    0.10</time>
   <time name="total">    0.14    0.14</time>
   <energy>
    <i name="alphaZ">     10.58173741 </i>
    <i name="ewald">   -666.72558547 </i>
    <i name="hartreedc">   -326.63675893 </i>
    <i name="XCdc">      3.44421819 </i>
    <i name="pawpsdc">    825.55058042 </i>
    <i name="pawaedc">   -890.97831796 </i>
    <i name="eentropy">     -0.00117250 </i>
    <i name="bandstr">   -184.34113872 </i>
    <i name="atom">   1321.53873213 </i>
    <i name="e_fr_energy">     92.43229456 </i>
    <i name="e_wo_entrp">     92.43346706 </i>
    <i name="e_0_energy">     92.43288081 </i>
   </energy>
  </scstep>
  <scstep>
   <time name="dav">    0.09    0.10</time>
   <time name="total">    0.10    0.10</time>
   <energy>
    <i name="e_fr_energy">     -0.97262199 </i>
    <i name="e_wo_entrp">     -0.97193248 </i>
    <i name="e_0_energy">     -0.97227724 </i>
   </energy>
  </scstep>
  <scstep>
   <time name="dav">    0.16    0.16</time>
   <time name="total">    0.16    0.16</time>
   <energy>
    <i name="e_fr_energy">    -11.31462157 </i>
    <i name="e_wo_entrp">    -11.31462157 </i>
    <i name="e_0_energy">    -11.31462157 </i>
   </energy>
  </scstep>
  <scstep>
   <time name="dav">    0.11    0.11</time>
   <time name="total">    0.11    0.11</time>
   <energy>
    <i name="e_fr_energy">    -11.73962184 </i>
    <i name="e_wo_entrp">    -11.73962184 </i>
    <i name="e_0_energy">    -11.73962184 </i>
   </energy>
  </scstep>
  <scstep>
   <time name="dav">    0.14    0.14</time>
   <time name="total">    0.16    0.16</time>
   <energy>
    <i name="e_fr_energy">    -11.78272952 </i>
    <i name="e_wo_entrp">    -11.78272952 </i>
    <i name="e_0_energy">    -11.78272952 </i>
   </energy>
  </scstep>
  <scstep>
   <time name="dav">    0.11    0.11</time>
   <time name="total">    0.17    0.17</time>
   <energy>
    <i name="e_fr_energy">    -11.64140097 </i>
    <i name="e_wo_entrp">    -11.64140097 </i>
    <i name="e_0_energy">    -11.64140097 </i>
   </energy>
  </scstep>
  <scstep>
   <time name="dav">    0.12    0.12</time>
   <time name="total">    0.17    0.17</time>
   <energy>
    <i name="e_fr_energy">    -11.59430849 </i>
    <i name="e_wo_entrp">    -11.59430849 </i>
    <i name="e_0_energy">    -11.59430849 </i>
   </energy>
  </scstep>
  <scstep>
   <time name="dav">    0.11    0.11</time>
   <time name="total">    0.16    0.16</time>
   <energy>
    <i name="e_fr_energy">    -11.59121016 </i>
    <i name="e_wo_entrp">    -11.59121016 </i>
    <i name="e_0_energy">    -11.59121016 </i>
   </energy>
  </scstep>
  <scstep>
   <time name="dav">    0.12    0.12</time>
   <time name="total">    0.17    0.17</time>
   <energy>
    <i name="e_fr_energy">    -11.59118320 </i>
    <i name="e_wo_entrp">    -11.59118320 </i>
    <i name="e_0_energy">    -11.59118320 </i>
   </energy>
  </scstep>
  <scstep>
   <time name="dav">    0.14    0.14</time>
   <time name="total">    0.19    0.19</time>
   <energy>
    <i name="e_fr_energy">    -11.59115289 </i>
    <i name="e_wo_entrp">    -11.59115289 </i>
    <i name="e_0_energy">    -11.59115289 </i>
   </energy>
  </scstep>
  <scstep>
   <time name="dav">    0.14    0.14</time>
   <time name="total">    0.20    0.20</time>
   <energy>
    <i name="e_fr_energy">    -11.59115382 </i>
    <i name="e_wo_entrp">    -11.59115382 </i>
    <i name="e_0_energy">    -11.59115382 </i>
   </energy>
  </scstep>
  <scstep>
   <time name="dav">    0.11    0.11</time>
   <time name="total">    0.17    0.17</time>
   <energy>
    <i name="e_fr_energy">    -11.59115430 </i>
    <i name="e_wo_entrp">    -11.59115430 </i>
    <i name="e_0_energy">    -11.59115430 </i>
   </energy>
  </scstep>
  <scstep>
   <time name="dav">    0.11    0.11</time>
   <time name="total">    0.17    0.17</time>
   <energy>
    <i name="e_fr_energy">    -11.59115447 </i>
    <i name="e_wo_entrp">    -11.59115447 </i>
    <i name="e_0_energy">    -11.59115447 </i>
   </energy>
  </scstep>
  <scstep>
   <time name="dav">    0.08    0.08</time>
   <time name="total">    0.14    0.14</time>
   <energy>
    <i name="e_fr_energy">    -11.59115472 </i>
    <i name="e_wo_entrp">    -11.59115472 </i>
    <i name="e_0_energy">    -11.59115472 </i>
   </energy>
  </scstep>
  <scstep>
   <time name="dav">    0.07    0.07</time>
   <time name="total">    0.13    0.13</time>
   <energy>
    <i name="e_fr_energy">    -11.59115468 </i>
    <i name="e_wo_entrp">    -11.59115468 </i>
    <i name="e_0_energy">    -11.59115468 </i>
   </energy>
  </scstep>
  <scstep>
   <time name="dav">    0.07    0.07</time>
   <time name="total">    0.13    0.13</time>
   <energy>
    <i name="e_fr_energy">    -11.59115462 </i>
    <i name="e_wo_entrp">    -11.59115462 </i>
    <i name="e_0_energy">    -11.59115462 </i>
   </energy>
  </scstep>
  <scstep>
   <time name="dav">    0.07    0.07</time>
   <time name="total">    0.10    0.10</time>
   <energy>
    <i name="alphaZ">     10.58173741 </i>
    <i name="ewald">   -666.72558547 </i>
    <i name="hartreedc">   -318.36679378 </i>
    <i name="XCdc">      3.60658221 </i>
    <i name="pawpsdc">   1017.84472340 </i>
    <i name="pawaedc">  -1084.17175285 </i>
    <i name="eentropy">     -0.00000000 </i>
    <i name="bandstr">   -295.89879769 </i>
    <i name="atom">   1321.53873213 </i>
    <i name="e_fr_energy">    -11.59115463 </i>
    <i name="e_wo_entrp">    -11.59115463 </i>
    <i name="e_0_energy">    -11.59115463 </i>
   </energy>
  </scstep>
  <structure>
   <crystal>
    <varray name="basis" >
     <v>       3.41883334      -3.41883334       0.00000000 </v>
     <v>      -3.41883334       0.00000000      -3.41883334 </v>
     <v>       3.41883334       3.41883334       0.00000000 </v>
    </varray>
    <i name="volume">     79.92152976 </i>
    <varray name="rec_basis" >
     <v>       0.14624872      -0.14624872      -0.14624872 </v>
     <v>       0.00000000       0.00000000      -0.29249744 </v>
     <v>       0.14624872       0.14624872      -0.14624872 </v>
    </varray>
   </crystal>
   <varray name="positions" >
    <v>       0.74999822       0.49999882       0.24999941 </v>
    <v>       0.24999941       0.49999882       0.74999822 </v>
    <v>       0.50000030       0.00000000       0.50000030 </v>
    <v>       0.00000000       0.00000000       0.00000000 </v>
   </varray>
  </structure>
  <varray name="forces" >
   <v>      -0.00000000      -0.00000000       0.00000000 </v>
   <v>       0.00000000       0.00000000       0.00000000 </v>
   <v>      -0.00000000       0.00000000       0.00000000 </v>
   <v>      -0.00000000      -0.00000000       0.00000000 </v>
  </varray>
  <varray name="stress" >
   <v>       0.28739144      -0.00000000       0.00000000 </v>
   <v>      -0.00000000       0.28739144      -0.00000000 </v>
   <v>       0.00000000      -0.00000000       0.28739144 </v>
  </varray>
  <energy>
   <i name="e_fr_energy">    -11.59115463 </i>
   <i name="e_wo_entrp">    -11.59115463 </i>
   <i name="e_0_energy">     -0.00000000 </i>
  </energy>
  <time name="totalsc">    2.78    2.80</time>
  <eigenvalues>
   <array>
    <dimension dim="1">band</dimension>
    <dimension dim="2">kpoint</dimension>
    <dimension dim="3">spin</dimension>
    <field>eigene</field>
    <field>occ</field>
    <set>
     <set comment="spin 1">
      <set comment="kpoint 1">
       <r>  -42.8653    1.0000 </r>
       <r>  -42.8602    1.0000 </r>
       <r>  -20.8363    1.0000 </r>
       <r>  -20.8363    1.0000 </r>
       <r>  -20.8363    1.0000 </r>
       <r>   -5.4219    1.0000 </r>
       <r>    3.5362    1.0000 </r>
       <r>    3.5362    1.0000 </r>
       <r>    3.5362    1.0000 </r>
       <r>    5.1585    0.0000 </r>
       <r>    6.1849    0.0000 </r>
       <r>    6.1849    0.0000 </r>
       <r>    6.1849    0.0000 </r>
      </set>
      <set comment="kpoint 2">
       <r>  -42.8651    1.0000 </r>
       <r>  -42.8604    1.0000 </r>
       <r>  -20.8367    1.0000 </r>
       <r>  -20.8363    1.0000 </r>
       <r>  -20.8363    1.0000 </r>
       <r>   -5.3480    1.0000 </r>
       <r>    2.5689    1.0000 </r>
       <r>    3.3861    1.0000 </r>
       <r>    3.3862    1.0000 </r>
       <r>    5.5834    0.0000 </r>
       <r>    6.4364    0.0000 </r>
       <r>    6.4364    0.0000 </r>
       <r>    6.8763    0.0000 </r>
      </set>
      <set comment="kpoint 3">
       <r>  -42.8646    1.0000 </r>
       <r>  -42.8609    1.0000 </r>
       <r>  -20.8376    1.0000 </r>
       <r>  -20.8364    1.0000 </r>
       <r>  -20.8364    1.0000 </r>
       <r>   -5.1511    1.0000 </r>
       <r>    1.2777    1.0000 </r>
       <r>    3.1062    1.0000 </r>
       <r>    3.1062    1.0000 </r>
       <r>    5.7553    0.0000 </r>
       <r>    6.6816    0.0000 </r>
       <r>    6.6816    0.0000 </r>
       <r>    8.2185    0.0000 </r>
      </set>
      <set comment="kpoint 4">
       <r>  -42.8638    1.0000 </r>
       <r>  -42.8617    1.0000 </r>
       <r>  -20.8386    1.0000 </r>
       <r>  -20.8365    1.0000 </r>
       <r>  -20.8365    1.0000 </r>
       <r>   -4.9197    1.0000 </r>
       <r>    0.3387    1.0000 </r>
       <r>    2.8920    1.0000 </r>
       <r>    2.8920    1.0000 </r>
       <r>    5.8370    0.0000 </r>
       <r>    6.4971    0.0000 </r>
       <r>    6.4971    0.0000 </r>
       <r>    8.8616    0.0000 </r>
      </set>
      <set comment="kpoint 5">
       <r>  -42.8627    1.0000 </r>
       <r>  -42.8627    1.0000 </r>
       <r>  -20.8390    1.0000 </r>
       <r>  -20.8366    1.0000 </r>
       <r>  -20.8366    1.0000 </r>
       <r>   -4.8097    1.0000 </r>
       <r>   -0.0125    1.0000 </r>
       <r>    2.8154    1.0000 </r>
       <r>    2.8154    1.0000 </r>
       <r>    5.8655    0.0000 </r>
       <r>    6.3811    0.0000 </r>
       <r>    6.3812    0.0000 </r>
       <r>    8.9672    0.0000 </r>
      </set>
      <set comment="kpoint 6">
       <r>  -42.8651    1.0000 </r>
       <r>  -42.8604    1.0000 </r>
       <r>  -20.8366    1.0000 </r>
       <r>  -20.8364    1.0000 </r>
       <r>  -20.8364    1.0000 </r>
       <r>   -5.3239    1.0000 </r>
       <r>    2.6975    1.0000 </r>
       <r>    3.0902    1.0000 </r>
       <r>    3.0902    1.0000 </r>
       <r>    5.9791    0.0000 </r>
       <r>    6.1639    0.0000 </r>
       <r>    6.8623    0.0000 </r>
       <r>    6.8623    0.0000 </r>
      </set>
      <set comment="kpoint 7">
       <r>  -42.8647    1.0000 </r>
       <r>  -42.8608    1.0000 </r>
       <r>  -20.8373    1.0000 </r>
       <r>  -20.8366    1.0000 </r>
       <r>  -20.8365    1.0000 </r>
       <r>   -5.1690    1.0000 </r>
       <r>    1.6553    1.0000 </r>
       <r>    2.7681    1.0000 </r>
       <r>    2.9203    1.0000 </r>
       <r>    6.0415    0.0000 </r>
       <r>    6.4438    0.0000 </r>
       <r>    7.1892    0.0000 </r>
       <r>    7.3189    0.0000 </r>
      </set>
      <set comment="kpoint 8">
       <r>  -42.8640    1.0000 </r>
       <r>  -42.8615    1.0000 </r>
       <r>  -20.8382    1.0000 </r>
       <r>  -20.8367    1.0000 </r>
       <r>  -20.8366    1.0000 </r>
       <r>   -4.9469    1.0000 </r>
       <r>    0.6608    1.0000 </r>
       <r>    2.5863    1.0000 </r>
       <r>    2.6413    1.0000 </r>
       <r>    5.9353    0.0000 </r>
       <r>    6.6981    0.0000 </r>
       <r>    7.1794    0.0000 </r>
       <r>    7.7282    0.0000 </r>
      </set>
      <set comment="kpoint 9">
       <r>  -42.8631    1.0000 </r>
       <r>  -42.8624    1.0000 </r>
       <r>  -20.8388    1.0000 </r>
       <r>  -20.8368    1.0000 </r>
       <r>  -20.8367    1.0000 </r>
       <r>   -4.7887    1.0000 </r>
       <r>    0.1302    1.0000 </r>
       <r>    2.3796    1.0000 </r>
       <r>    2.5938    1.0000 </r>
       <r>    5.9379    0.0000 </r>
       <r>    6.6699    0.0000 </r>
       <r>    6.8737    0.0000 </r>
       <r>    8.9966    0.0000 </r>
      </set>
      <set comment="kpoint 10">
       <r>  -42.8634    1.0000 </r>
       <r>  -42.8621    1.0000 </r>
       <r>  -20.8387    1.0000 </r>
       <r>  -20.8369    1.0000 </r>
       <r>  -20.8366    1.0000 </r>
       <r>   -4.8248    1.0000 </r>
       <r>    0.2394    1.0000 </r>
       <r>    2.2604    1.0000 </r>
       <r>    2.7830    1.0000 </r>
       <r>    6.0684    0.0000 </r>
       <r>    6.7013    0.0000 </r>
       <r>    6.7505    0.0000 </r>
       <r>    9.1742    0.0000 </r>
      </set>
      <set comment="kpoint 11">
       <r>  -42.8642    1.0000 </r>
       <r>  -42.8613    1.0000 </r>
       <r>  -20.8379    1.0000 </r>
       <r>  -20.8368    1.0000 </r>
       <r>  -20.8364    1.0000 </r>
       <r>   -5.0223    1.0000 </r>
       <r>    0.9341    1.0000 </r>
       <r>    2.3468    1.0000 </r>
       <r>    3.0955    1.0000 </r>
       <r>    6.1214    0.0000 </r>
       <r>    6.8048    0.0000 </r>
       <r>    6.9408    0.0000 </r>
       <r>    8.0512    0.0000 </r>
      </set>
      <set comment="kpoint 12">
       <r>  -42.8648    1.0000 </r>
       <r>  -42.8606    1.0000 </r>
       <r>  -20.8371    1.0000 </r>
       <r>  -20.8366    1.0000 </r>
       <r>  -20.8363    1.0000 </r>
       <r>   -5.2331    1.0000 </r>
       <r>    1.9013    1.0000 </r>
       <r>    2.7269    1.0000 </r>
       <r>    3.3817    1.0000 </r>
       <r>    5.9349    0.0000 </r>
       <r>    6.5638    0.0000 </r>
       <r>    7.0576    0.0000 </r>
       <r>    7.2618    0.0000 </r>
      </set>
      <set comment="kpoint 13">
       <r>  -42.8645    1.0000 </r>
       <r>  -42.8610    1.0000 </r>
       <r>  -20.8374    1.0000 </r>
       <r>  -20.8368    1.0000 </r>
       <r>  -20.8368    1.0000 </r>
       <r>   -5.0689    1.0000 </r>
       <r>    1.6355    1.0000 </r>
       <r>    2.4004    1.0000 </r>
       <r>    2.4005    1.0000 </r>
       <r>    5.5468    0.0000 </r>
       <r>    6.1162    0.0000 </r>
       <r>    8.1661    0.0000 </r>
       <r>    8.1661    0.0000 </r>
      </set>
      <set comment="kpoint 14">
       <r>  -42.8640    1.0000 </r>
       <r>  -42.8614    1.0000 </r>
       <r>  -20.8380    1.0000 </r>
       <r>  -20.8370    1.0000 </r>
       <r>  -20.8370    1.0000 </r>
       <r>   -4.8922    1.0000 </r>
       <r>    0.9992    1.0000 </r>
       <r>    2.0928    1.0000 </r>
       <r>    2.1865    1.0000 </r>
       <r>    5.2834    0.0000 </r>
       <r>    6.4195    0.0000 </r>
       <r>    8.2045    0.0000 </r>
       <r>    8.4042    0.0000 </r>
      </set>
      <set comment="kpoint 15">
       <r>  -42.8633    1.0000 </r>
       <r>  -42.8621    1.0000 </r>
       <r>  -20.8384    1.0000 </r>
       <r>  -20.8373    1.0000 </r>
       <r>  -20.8370    1.0000 </r>
       <r>   -4.7348    1.0000 </r>
       <r>    0.5032    1.0000 </r>
       <r>    1.6853    1.0000 </r>
       <r>    2.1834    1.0000 </r>
       <r>    5.3852    0.0000 </r>
       <r>    7.4210    0.0000 </r>
       <r>    8.0600    0.0000 </r>
       <r>    8.0821    0.0000 </r>
      </set>
      <set comment="kpoint 16">
       <r>  -42.8629    1.0000 </r>
       <r>  -42.8626    1.0000 </r>
       <r>  -20.8384    1.0000 </r>
       <r>  -20.8375    1.0000 </r>
       <r>  -20.8368    1.0000 </r>
       <r>   -4.7107    1.0000 </r>
       <r>    0.4205    1.0000 </r>
       <r>    1.4364    1.0000 </r>
       <r>    2.3906    1.0000 </r>
       <r>    5.6585    0.0000 </r>
       <r>    7.8168    0.0000 </r>
       <r>    7.8625    0.0000 </r>
       <r>    8.9738    0.0000 </r>
      </set>
      <set comment="kpoint 17">
       <r>  -42.8636    1.0000 </r>
       <r>  -42.8619    1.0000 </r>
       <r>  -20.8382    1.0000 </r>
       <r>  -20.8374    1.0000 </r>
       <r>  -20.8366    1.0000 </r>
       <r>   -4.8396    1.0000 </r>
       <r>    0.6569    1.0000 </r>
       <r>    1.6113    1.0000 </r>
       <r>    2.7521    1.0000 </r>
       <r>    6.0280    0.0000 </r>
       <r>    7.5098    0.0000 </r>
       <r>    7.6937    0.0000 </r>
       <r>    7.8481    0.0000 </r>
      </set>
      <set comment="kpoint 18">
       <r>  -42.8639    1.0000 </r>
       <r>  -42.8616    1.0000 </r>
       <r>  -20.8381    1.0000 </r>
       <r>  -20.8372    1.0000 </r>
       <r>  -20.8372    1.0000 </r>
       <r>   -4.7810    1.0000 </r>
       <r>    0.9000    1.0000 </r>
       <r>    1.9218    1.0000 </r>
       <r>    1.9218    1.0000 </r>
       <r>    4.5820    0.0000 </r>
       <r>    6.0721    0.0000 </r>
       <r>    9.5537    0.0000 </r>
       <r>    9.5537    0.0000 </r>
      </set>
      <set comment="kpoint 19">
       <r>  -42.8636    1.0000 </r>
       <r>  -42.8619    1.0000 </r>
       <r>  -20.8383    1.0000 </r>
       <r>  -20.8375    1.0000 </r>
       <r>  -20.8373    1.0000 </r>
       <r>   -4.6754    1.0000 </r>
       <r>    0.7201    1.0000 </r>
       <r>    1.5056    1.0000 </r>
       <r>    1.8688    1.0000 </r>
       <r>    4.6717    0.0000 </r>
       <r>    6.3693    0.0000 </r>
       <r>    9.6384    0.0000 </r>
       <r>    9.6606    0.0000 </r>
      </set>
      <set comment="kpoint 20">
       <r>  -42.8631    1.0000 </r>
       <r>  -42.8623    1.0000 </r>
       <r>  -20.8381    1.0000 </r>
       <r>  -20.8379    1.0000 </r>
       <r>  -20.8371    1.0000 </r>
       <r>   -4.6453    1.0000 </r>
       <r>    0.8790    1.0000 </r>
       <r>    0.8800    1.0000 </r>
       <r>    2.0383    1.0000 </r>
       <r>    5.1530    0.0000 </r>
       <r>    7.3772    0.0000 </r>
       <r>    9.1445    0.0000 </r>
       <r>    9.2066    0.0000 </r>
      </set>
      <set comment="kpoint 21">
       <r>  -42.8637    1.0000 </r>
       <r>  -42.8618    1.0000 </r>
       <r>  -20.8384    1.0000 </r>
       <r>  -20.8374    1.0000 </r>
       <r>  -20.8374    1.0000 </r>
       <r>   -4.6490    1.0000 </r>
       <r>    0.6324    1.0000 </r>
       <r>    1.7558    1.0000 </r>
       <r>    1.7558    1.0000 </r>
       <r>    4.2177    0.0000 </r>
       <r>    6.0549    0.0000 </r>
       <r>   10.7896    0.0000 </r>
       <r>   10.7896    0.0000 </r>
      </set>
      <set comment="kpoint 22">
       <r>  -42.8642    1.0000 </r>
       <r>  -42.8612    1.0000 </r>
       <r>  -20.8378    1.0000 </r>
       <r>  -20.8370    1.0000 </r>
       <r>  -20.8366    1.0000 </r>
       <r>   -5.0012    1.0000 </r>
       <r>    1.1404    1.0000 </r>
       <r>    2.1190    1.0000 </r>
       <r>    2.7467    1.0000 </r>
       <r>    6.0948    0.0000 </r>
       <r>    6.6554    0.0000 </r>
       <r>    6.9839    0.0000 </r>
       <r>    8.2177    0.0000 </r>
      </set>
      <set comment="kpoint 23">
       <r>  -42.8635    1.0000 </r>
       <r>  -42.8619    1.0000 </r>
       <r>  -20.8383    1.0000 </r>
       <r>  -20.8372    1.0000 </r>
       <r>  -20.8368    1.0000 </r>
       <r>   -4.8095    1.0000 </r>
       <r>    0.5546    1.0000 </r>
       <r>    1.8187    1.0000 </r>
       <r>    2.4323    1.0000 </r>
       <r>    6.1889    0.0000 </r>
       <r>    6.6517    0.0000 </r>
       <r>    7.5443    0.0000 </r>
       <r>    8.2957    0.0000 </r>
      </set>
      <set comment="kpoint 24">
       <r>  -42.8627    1.0000 </r>
       <r>  -42.8627    1.0000 </r>
       <r>  -20.8386    1.0000 </r>
       <r>  -20.8373    1.0000 </r>
       <r>  -20.8369    1.0000 </r>
       <r>   -4.7209    1.0000 </r>
       <r>    0.2987    1.0000 </r>
       <r>    1.7741    1.0000 </r>
       <r>    2.2633    1.0000 </r>
       <r>    6.3221    0.0000 </r>
       <r>    6.3957    0.0000 </r>
       <r>    8.1145    0.0000 </r>
       <r>    9.0619    0.0000 </r>
      </set>
      <set comment="kpoint 25">
       <r>  -42.8636    1.0000 </r>
       <r>  -42.8619    1.0000 </r>
       <r>  -20.8382    1.0000 </r>
       <r>  -20.8374    1.0000 </r>
       <r>  -20.8371    1.0000 </r>
       <r>   -4.7485    1.0000 </r>
       <r>    0.7775    1.0000 </r>
       <r>    1.6804    1.0000 </r>
       <r>    1.8953    1.0000 </r>
       <r>    5.3205    0.0000 </r>
       <r>    6.6177    0.0000 </r>
       <r>    7.9888    0.0000 </r>
       <r>    9.6644    0.0000 </r>
      </set>
      <set comment="kpoint 26">
       <r>  -42.8631    1.0000 </r>
       <r>  -42.8624    1.0000 </r>
       <r>  -20.8382    1.0000 </r>
       <r>  -20.8377    1.0000 </r>
       <r>  -20.8372    1.0000 </r>
       <r>   -4.6573    1.0000 </r>
       <r>    0.6914    1.0000 </r>
       <r>    1.2681    1.0000 </r>
       <r>    1.7794    1.0000 </r>
       <r>    5.7596    0.0000 </r>
       <r>    7.4980    0.0000 </r>
       <r>    7.5795    0.0000 </r>
       <r>    9.2380    0.0000 </r>
      </set>
      <set comment="kpoint 27">
       <r>  -42.8630    1.0000 </r>
       <r>  -42.8625    1.0000 </r>
       <r>  -20.8382    1.0000 </r>
       <r>  -20.8378    1.0000 </r>
       <r>  -20.8370    1.0000 </r>
       <r>   -4.6848    1.0000 </r>
       <r>    0.6432    1.0000 </r>
       <r>    1.2287    1.0000 </r>
       <r>    2.0330    1.0000 </r>
       <r>    6.1990    0.0000 </r>
       <r>    7.0282    0.0000 </r>
       <r>    7.9592    0.0000 </r>
       <r>    9.0179    0.0000 </r>
      </set>
      <set comment="kpoint 28">
       <r>  -42.8634    1.0000 </r>
       <r>  -42.8621    1.0000 </r>
       <r>  -20.8383    1.0000 </r>
       <r>  -20.8376    1.0000 </r>
       <r>  -20.8374    1.0000 </r>
       <r>   -4.6367    1.0000 </r>
       <r>    0.7544    1.0000 </r>
       <r>    1.4592    1.0000 </r>
       <r>    1.5263    1.0000 </r>
       <r>    5.0285    0.0000 </r>
       <r>    6.5983    0.0000 </r>
       <r>    8.9909    0.0000 </r>
       <r>    9.7874    0.0000 </r>
      </set>
      <set comment="kpoint 29">
       <r>  -42.8628    1.0000 </r>
       <r>  -42.8628    1.0000 </r>
       <r>  -20.8379    1.0000 </r>
       <r>  -20.8379    1.0000 </r>
       <r>  -20.8374    1.0000 </r>
       <r>   -4.6243    1.0000 </r>
       <r>    1.0921    1.0000 </r>
       <r>    1.0921    1.0000 </r>
       <r>    1.2343    1.0000 </r>
       <r>    6.6531    0.0000 </r>
       <r>    6.9390    0.0000 </r>
       <r>    7.9637    0.0000 </r>
       <r>    7.9637    0.0000 </r>
      </set>
     </set>
    </set>
   </array>
  </eigenvalues>
  <separator name="orbital magnetization" >
   <v name="MAGDIPOLOUT">      0.00000000      0.00000000      0.00000000</v>
  </separator>
  <dos>
   <i name="efermi">      3.85692829 </i>
   <total>
    <array>
     <dimension dim="1">gridpoints</dimension>
     <dimension dim="2">spin</dimension>
     <field>energy</field>
     <field>total</field>
     <field>integrated</field>
     <set>
      <set comment="spin 1">
       <r>   -45.5480     0.0000     0.0000 </r>
       <r>   -45.3513     0.0000     0.0000 </r>
       <r>   -45.1545     0.0000     0.0000 </r>
       <r>   -44.9578     0.0000     0.0000 </r>
       <r>   -44.7611     0.0000     0.0000 </r>
       <r>   -44.5643     0.0000     0.0000 </r>
       <r>   -44.3676     0.0000     0.0000 </r>
       <r>   -44.1709     0.0000     0.0000 </r>
       <r>   -43.9741     0.0000     0.0000 </r>
       <r>   -43.7774     0.0000     0.0000 </r>
       <r>   -43.5807     0.0000     0.0000 </r>
       <r>   -43.3839     0.0000     0.0000 </r>
       <r>   -43.1872     0.0000     0.0000 </r>
       <r>   -42.9905     0.0031     0.0006 </r>
       <r>   -42.7937    19.8097     3.8979 </r>
       <r>   -42.5970     0.5191     4.0000 </r>
       <r>   -42.4003     0.0000     4.0000 </r>
       <r>   -42.2035     0.0000     4.0000 </r>
       <r>   -42.0068     0.0000     4.0000 </r>
       <r>   -41.8101     0.0000     4.0000 </r>
       <r>   -41.6133     0.0000     4.0000 </r>
       <r>   -41.4166     0.0000     4.0000 </r>
       <r>   -41.2199     0.0000     4.0000 </r>
       <r>   -41.0231     0.0000     4.0000 </r>
       <r>   -40.8264     0.0000     4.0000 </r>
       <r>   -40.6297     0.0000     4.0000 </r>
       <r>   -40.4329     0.0000     4.0000 </r>
       <r>   -40.2362     0.0000     4.0000 </r>
       <r>   -40.0394     0.0000     4.0000 </r>
       <r>   -39.8427     0.0000     4.0000 </r>
       <r>   -39.6460     0.0000     4.0000 </r>
       <r>   -39.4492     0.0000     4.0000 </r>
       <r>   -39.2525     0.0000     4.0000 </r>
       <r>   -39.0558     0.0000     4.0000 </r>
       <r>   -38.8590     0.0000     4.0000 </r>
       <r>   -38.6623     0.0000     4.0000 </r>
       <r>   -38.4656     0.0000     4.0000 </r>
       <r>   -38.2688     0.0000     4.0000 </r>
       <r>   -38.0721     0.0000     4.0000 </r>
       <r>   -37.8754     0.0000     4.0000 </r>
       <r>   -37.6786     0.0000     4.0000 </r>
       <r>   -37.4819     0.0000     4.0000 </r>
       <r>   -37.2852     0.0000     4.0000 </r>
       <r>   -37.0884     0.0000     4.0000 </r>
       <r>   -36.8917     0.0000     4.0000 </r>
       <r>   -36.6950     0.0000     4.0000 </r>
       <r>   -36.4982     0.0000     4.0000 </r>
       <r>   -36.3015     0.0000     4.0000 </r>
       <r>   -36.1048     0.0000     4.0000 </r>
       <r>   -35.9080     0.0000     4.0000 </r>
       <r>   -35.7113     0.0000     4.0000 </r>
       <r>   -35.5146     0.0000     4.0000 </r>
       <r>   -35.3178     0.0000     4.0000 </r>
       <r>   -35.1211     0.0000     4.0000 </r>
       <r>   -34.9244     0.0000     4.0000 </r>
       <r>   -34.7276     0.0000     4.0000 </r>
       <r>   -34.5309     0.0000     4.0000 </r>
       <r>   -34.3341     0.0000     4.0000 </r>
       <r>   -34.1374     0.0000     4.0000 </r>
       <r>   -33.9407     0.0000     4.0000 </r>
       <r>   -33.7439     0.0000     4.0000 </r>
       <r>   -33.5472     0.0000     4.0000 </r>
       <r>   -33.3505     0.0000     4.0000 </r>
       <r>   -33.1537     0.0000     4.0000 </r>
       <r>   -32.9570     0.0000     4.0000 </r>
       <r>   -32.7603     0.0000     4.0000 </r>
       <r>   -32.5635     0.0000     4.0000 </r>
       <r>   -32.3668     0.0000     4.0000 </r>
       <r>   -32.1701     0.0000     4.0000 </r>
       <r>   -31.9733     0.0000     4.0000 </r>
       <r>   -31.7766     0.0000     4.0000 </r>
       <r>   -31.5799     0.0000     4.0000 </r>
       <r>   -31.3831     0.0000     4.0000 </r>
       <r>   -31.1864     0.0000     4.0000 </r>
       <r>   -30.9897     0.0000     4.0000 </r>
       <r>   -30.7929     0.0000     4.0000 </r>
       <r>   -30.5962     0.0000     4.0000 </r>
       <r>   -30.3995     0.0000     4.0000 </r>
       <r>   -30.2027     0.0000     4.0000 </r>
       <r>   -30.0060     0.0000     4.0000 </r>
       <r>   -29.8093     0.0000     4.0000 </r>
       <r>   -29.6125     0.0000     4.0000 </r>
       <r>   -29.4158     0.0000     4.0000 </r>
       <r>   -29.2191     0.0000     4.0000 </r>
       <r>   -29.0223     0.0000     4.0000 </r>
       <r>   -28.8256     0.0000     4.0000 </r>
       <r>   -28.6288     0.0000     4.0000 </r>
       <r>   -28.4321     0.0000     4.0000 </r>
       <r>   -28.2354     0.0000     4.0000 </r>
       <r>   -28.0386     0.0000     4.0000 </r>
       <r>   -27.8419     0.0000     4.0000 </r>
       <r>   -27.6452     0.0000     4.0000 </r>
       <r>   -27.4484     0.0000     4.0000 </r>
       <r>   -27.2517     0.0000     4.0000 </r>
       <r>   -27.0550     0.0000     4.0000 </r>
       <r>   -26.8582     0.0000     4.0000 </r>
       <r>   -26.6615     0.0000     4.0000 </r>
       <r>   -26.4648     0.0000     4.0000 </r>
       <r>   -26.2680     0.0000     4.0000 </r>
       <r>   -26.0713     0.0000     4.0000 </r>
       <r>   -25.8746     0.0000     4.0000 </r>
       <r>   -25.6778     0.0000     4.0000 </r>
       <r>   -25.4811     0.0000     4.0000 </r>
       <r>   -25.2844     0.0000     4.0000 </r>
       <r>   -25.0876     0.0000     4.0000 </r>
       <r>   -24.8909     0.0000     4.0000 </r>
       <r>   -24.6942     0.0000     4.0000 </r>
       <r>   -24.4974     0.0000     4.0000 </r>
       <r>   -24.3007     0.0000     4.0000 </r>
       <r>   -24.1040     0.0000     4.0000 </r>
       <r>   -23.9072     0.0000     4.0000 </r>
       <r>   -23.7105     0.0000     4.0000 </r>
       <r>   -23.5138     0.0000     4.0000 </r>
       <r>   -23.3170     0.0000     4.0000 </r>
       <r>   -23.1203     0.0000     4.0000 </r>
       <r>   -22.9236     0.0000     4.0000 </r>
       <r>   -22.7268     0.0000     4.0000 </r>
       <r>   -22.5301     0.0000     4.0000 </r>
       <r>   -22.3333     0.0000     4.0000 </r>
       <r>   -22.1366     0.0000     4.0000 </r>
       <r>   -21.9399     0.0000     4.0000 </r>
       <r>   -21.7431     0.0000     4.0000 </r>
       <r>   -21.5464     0.0000     4.0000 </r>
       <r>   -21.3497     0.0000     4.0000 </r>
       <r>   -21.1529     0.0000     4.0000 </r>
       <r>   -20.9562     0.0119     4.0023 </r>
       <r>   -20.7595    30.0654     9.9172 </r>
       <r>   -20.5627     0.4207    10.0000 </r>
       <r>   -20.3660     0.0000    10.0000 </r>
       <r>   -20.1693     0.0000    10.0000 </r>
       <r>   -19.9725     0.0000    10.0000 </r>
       <r>   -19.7758     0.0000    10.0000 </r>
       <r>   -19.5791     0.0000    10.0000 </r>
       <r>   -19.3823     0.0000    10.0000 </r>
       <r>   -19.1856     0.0000    10.0000 </r>
       <r>   -18.9889     0.0000    10.0000 </r>
       <r>   -18.7921     0.0000    10.0000 </r>
       <r>   -18.5954     0.0000    10.0000 </r>
       <r>   -18.3987     0.0000    10.0000 </r>
       <r>   -18.2019     0.0000    10.0000 </r>
       <r>   -18.0052     0.0000    10.0000 </r>
       <r>   -17.8085     0.0000    10.0000 </r>
       <r>   -17.6117     0.0000    10.0000 </r>
       <r>   -17.4150     0.0000    10.0000 </r>
       <r>   -17.2183     0.0000    10.0000 </r>
       <r>   -17.0215     0.0000    10.0000 </r>
       <r>   -16.8248     0.0000    10.0000 </r>
       <r>   -16.6280     0.0000    10.0000 </r>
       <r>   -16.4313     0.0000    10.0000 </r>
       <r>   -16.2346     0.0000    10.0000 </r>
       <r>   -16.0378     0.0000    10.0000 </r>
       <r>   -15.8411     0.0000    10.0000 </r>
       <r>   -15.6444     0.0000    10.0000 </r>
       <r>   -15.4476     0.0000    10.0000 </r>
       <r>   -15.2509     0.0000    10.0000 </r>
       <r>   -15.0542     0.0000    10.0000 </r>
       <r>   -14.8574     0.0000    10.0000 </r>
       <r>   -14.6607     0.0000    10.0000 </r>
       <r>   -14.4640     0.0000    10.0000 </r>
       <r>   -14.2672     0.0000    10.0000 </r>
       <r>   -14.0705     0.0000    10.0000 </r>
       <r>   -13.8738     0.0000    10.0000 </r>
       <r>   -13.6770     0.0000    10.0000 </r>
       <r>   -13.4803     0.0000    10.0000 </r>
       <r>   -13.2836     0.0000    10.0000 </r>
       <r>   -13.0868     0.0000    10.0000 </r>
       <r>   -12.8901     0.0000    10.0000 </r>
       <r>   -12.6934     0.0000    10.0000 </r>
       <r>   -12.4966     0.0000    10.0000 </r>
       <r>   -12.2999     0.0000    10.0000 </r>
       <r>   -12.1032     0.0000    10.0000 </r>
       <r>   -11.9064     0.0000    10.0000 </r>
       <r>   -11.7097     0.0000    10.0000 </r>
       <r>   -11.5130     0.0000    10.0000 </r>
       <r>   -11.3162     0.0000    10.0000 </r>
       <r>   -11.1195     0.0000    10.0000 </r>
       <r>   -10.9227     0.0000    10.0000 </r>
       <r>   -10.7260     0.0000    10.0000 </r>
       <r>   -10.5293     0.0000    10.0000 </r>
       <r>   -10.3325     0.0000    10.0000 </r>
       <r>   -10.1358     0.0000    10.0000 </r>
       <r>    -9.9391     0.0000    10.0000 </r>
       <r>    -9.7423     0.0000    10.0000 </r>
       <r>    -9.5456     0.0000    10.0000 </r>
       <r>    -9.3489     0.0000    10.0000 </r>
       <r>    -9.1521     0.0000    10.0000 </r>
       <r>    -8.9554     0.0000    10.0000 </r>
       <r>    -8.7587     0.0000    10.0000 </r>
       <r>    -8.5619     0.0000    10.0000 </r>
       <r>    -8.3652     0.0000    10.0000 </r>
       <r>    -8.1685     0.0000    10.0000 </r>
       <r>    -7.9717     0.0000    10.0000 </r>
       <r>    -7.7750     0.0000    10.0000 </r>
       <r>    -7.5783     0.0000    10.0000 </r>
       <r>    -7.3815     0.0000    10.0000 </r>
       <r>    -7.1848     0.0000    10.0000 </r>
       <r>    -6.9881     0.0000    10.0000 </r>
       <r>    -6.7913     0.0000    10.0000 </r>
       <r>    -6.5946     0.0000    10.0000 </r>
       <r>    -6.3979     0.0000    10.0000 </r>
       <r>    -6.2011     0.0000    10.0000 </r>
       <r>    -6.0044     0.0000    10.0000 </r>
       <r>    -5.8077     0.0000    10.0000 </r>
       <r>    -5.6109     0.0000    10.0000 </r>
       <r>    -5.4142     0.0171    10.0034 </r>
       <r>    -5.2174     0.4859    10.0990 </r>
       <r>    -5.0207     1.1717    10.3295 </r>
       <r>    -4.8240     2.5230    10.8258 </r>
       <r>    -4.6272     5.4610    11.9002 </r>
       <r>    -4.4305     0.5074    12.0000 </r>
       <r>    -4.2338     0.0000    12.0000 </r>
       <r>    -4.0370     0.0000    12.0000 </r>
       <r>    -3.8403     0.0000    12.0000 </r>
       <r>    -3.6436     0.0000    12.0000 </r>
       <r>    -3.4468     0.0000    12.0000 </r>
       <r>    -3.2501     0.0000    12.0000 </r>
       <r>    -3.0534     0.0000    12.0000 </r>
       <r>    -2.8566     0.0000    12.0000 </r>
       <r>    -2.6599     0.0000    12.0000 </r>
       <r>    -2.4632     0.0000    12.0000 </r>
       <r>    -2.2664     0.0000    12.0000 </r>
       <r>    -2.0697     0.0000    12.0000 </r>
       <r>    -1.8730     0.0000    12.0000 </r>
       <r>    -1.6762     0.0000    12.0000 </r>
       <r>    -1.4795     0.0000    12.0000 </r>
       <r>    -1.2828     0.0000    12.0000 </r>
       <r>    -1.0860     0.0000    12.0000 </r>
       <r>    -0.8893     0.0000    12.0000 </r>
       <r>    -0.6926     0.0000    12.0000 </r>
       <r>    -0.4958     0.0000    12.0000 </r>
       <r>    -0.2991     0.0000    12.0000 </r>
       <r>    -0.1024     0.0004    12.0001 </r>
       <r>     0.0944     0.1529    12.0302 </r>
       <r>     0.2911     1.0573    12.2382 </r>
       <r>     0.4879     1.1066    12.4559 </r>
       <r>     0.6846     2.7613    12.9991 </r>
       <r>     0.8813     2.2061    13.4331 </r>
       <r>     1.0781     1.3281    13.6944 </r>
       <r>     1.2748     1.7772    14.0440 </r>
       <r>     1.4715     1.1967    14.2795 </r>
       <r>     1.6683     1.7400    14.6218 </r>
       <r>     1.8650     3.5916    15.3284 </r>
       <r>     2.0617     1.8409    15.6905 </r>
       <r>     2.2585     2.3752    16.1578 </r>
       <r>     2.4552     2.8635    16.7212 </r>
       <r>     2.6519     1.6701    17.0497 </r>
       <r>     2.8487     2.3835    17.5186 </r>
       <r>     3.0454     0.8739    17.6906 </r>
       <r>     3.2421     0.9573    17.8789 </r>
       <r>     3.4389     0.5219    17.9816 </r>
       <r>     3.6356     0.0935    18.0000 </r>
       <r>     3.8323     0.0001    18.0000 </r>
       <r>     4.0291     0.0000    18.0000 </r>
       <r>     4.2258     0.0352    18.0069 </r>
       <r>     4.4225     0.0244    18.0117 </r>
       <r>     4.6193     0.1346    18.0382 </r>
       <r>     4.8160     0.4610    18.1289 </r>
       <r>     5.0127     0.0782    18.1443 </r>
       <r>     5.2095     0.4127    18.2255 </r>
       <r>     5.4062     1.2999    18.4812 </r>
       <r>     5.6029     0.3882    18.5576 </r>
       <r>     5.7997     1.4999    18.8527 </r>
       <r>     5.9964     1.6806    19.1833 </r>
       <r>     6.1932     3.2692    19.8265 </r>
       <r>     6.3899     2.0276    20.2254 </r>
       <r>     6.5866     2.3190    20.6816 </r>
       <r>     6.7834     4.3610    21.5396 </r>
       <r>     6.9801     2.0869    21.9501 </r>
       <r>     7.1768     1.4073    22.2270 </r>
       <r>     7.3736     1.3918    22.5008 </r>
       <r>     7.5703     2.8646    23.0644 </r>
       <r>     7.7670     1.5121    23.3618 </r>
       <r>     7.9638     1.7186    23.7000 </r>
       <r>     8.1605     2.7316    24.2374 </r>
       <r>     8.3572     2.1736    24.6650 </r>
       <r>     8.5540     0.4718    24.7578 </r>
       <r>     8.7507     0.0001    24.7578 </r>
       <r>     8.9474     0.3656    24.8298 </r>
       <r>     9.1442     2.2376    25.2700 </r>
       <r>     9.3409     1.6837    25.6012 </r>
       <r>     9.5376     0.0803    25.6170 </r>
       <r>     9.7344     1.5835    25.9285 </r>
       <r>     9.9311     0.2441    25.9766 </r>
       <r>    10.1278     0.0000    25.9766 </r>
       <r>    10.3246     0.0000    25.9766 </r>
       <r>    10.5213     0.0000    25.9766 </r>
       <r>    10.7180     0.0026    25.9771 </r>
       <r>    10.9148     0.1165    26.0000 </r>
       <r>    11.1115     0.0000    26.0000 </r>
       <r>    11.3082     0.0000    26.0000 </r>
       <r>    11.5050     0.0000    26.0000 </r>
       <r>    11.7017     0.0000    26.0000 </r>
       <r>    11.8984     0.0000    26.0000 </r>
       <r>    12.0952     0.0000    26.0000 </r>
       <r>    12.2919     0.0000    26.0000 </r>
       <r>    12.4887     0.0000    26.0000 </r>
       <r>    12.6854     0.0000    26.0000 </r>
       <r>    12.8821     0.0000    26.0000 </r>
       <r>    13.0789     0.0000    26.0000 </r>
       <r>    13.2756     0.0000    26.0000 </r>
       <r>    13.4723     0.0000    26.0000 </r>
      </set>
     </set>
    </array>
   </total>
  </dos>
 </calculation>
 <structure name="finalpos" >
  <crystal>
   <varray name="basis" >
    <v>       3.41883334      -3.41883334       0.00000000 </v>
    <v>      -3.41883334       0.00000000      -3.41883334 </v>
    <v>       3.41883334       3.41883334       0.00000000 </v>
   </varray>
   <i name="volume">     79.92152976 </i>
   <varray name="rec_basis" >
    <v>       0.14624872      -0.14624872      -0.14624872 </v>
    <v>       0.00000000       0.00000000      -0.29249744 </v>
    <v>       0.14624872       0.14624872      -0.14624872 </v>
   </varray>
  </crystal>
  <varray name="positions" >
   <v>       0.74999822       0.49999882       0.24999941 </v>
   <v>       0.24999941       0.49999882       0.74999822 </v>
   <v>       0.50000030       0.00000000       0.50000030 </v>
   <v>       0.00000000       0.00000000       0.00000000 </v>
  </varray>
 </structure>
</modeling>
