unknown system                          
           1
     3.418833   -3.418833    0.000000
    -3.418833    0.000000   -3.418833
     3.418833    3.418833    0.000000
   Li   Na   Sb
   2   1   1
Direct configuration=     1
   0.74999822  0.49999882  0.24999941
   0.24999941  0.49999882  0.74999822
   0.50000030  0.00000000  0.50000030
   0.00000000  0.00000000  0.00000000
