   4   4   0   0
  0.4638570E+02  0.6402059E-09  0.6402059E-09  0.6402059E-09  0.5000000E-15
  1.000000000000000E-004
  CAR 
 unknown system                          
      6.78477361    -27.39363109  301      2.12084547      1.00000000
    -27.394  0.0000E+00  0.0000E+00
    -27.280  0.0000E+00  0.0000E+00
    -27.166  0.0000E+00  0.0000E+00
    -27.052  0.0000E+00  0.0000E+00
    -26.938  0.0000E+00  0.0000E+00
    -26.824  0.0000E+00  0.0000E+00
    -26.710  0.0000E+00  0.0000E+00
    -26.596  0.0000E+00  0.0000E+00
    -26.482  0.0000E+00  0.0000E+00
    -26.368  0.0000E+00  0.0000E+00
    -26.254  0.0000E+00  0.0000E+00
    -26.140  0.0000E+00  0.0000E+00
    -26.026  0.5713E-06  0.6509E-07
    -25.913  0.3523E+00  0.4014E-01
    -25.799  0.2808E+02  0.3239E+01
    -25.685  0.6677E+01  0.4000E+01
    -25.571  0.7902E-03  0.4000E+01
    -25.457  0.5681E-11  0.4000E+01
    -25.343  0.0000E+00  0.4000E+01
    -25.229  0.0000E+00  0.4000E+01
    -25.115  0.0000E+00  0.4000E+01
    -25.001  0.0000E+00  0.4000E+01
    -24.887  0.0000E+00  0.4000E+01
    -24.773  0.0000E+00  0.4000E+01
    -24.659  0.0000E+00  0.4000E+01
    -24.545  0.0000E+00  0.4000E+01
    -24.432  0.0000E+00  0.4000E+01
    -24.318  0.0000E+00  0.4000E+01
    -24.204  0.0000E+00  0.4000E+01
    -24.090  0.0000E+00  0.4000E+01
    -23.976  0.0000E+00  0.4000E+01
    -23.862  0.0000E+00  0.4000E+01
    -23.748  0.0000E+00  0.4000E+01
    -23.634  0.0000E+00  0.4000E+01
    -23.520  0.0000E+00  0.4000E+01
    -23.406  0.0000E+00  0.4000E+01
    -23.292  0.0000E+00  0.4000E+01
    -23.178  0.0000E+00  0.4000E+01
    -23.064  0.0000E+00  0.4000E+01
    -22.950  0.0000E+00  0.4000E+01
    -22.837  0.0000E+00  0.4000E+01
    -22.723  0.0000E+00  0.4000E+01
    -22.609  0.0000E+00  0.4000E+01
    -22.495  0.0000E+00  0.4000E+01
    -22.381  0.0000E+00  0.4000E+01
    -22.267  0.0000E+00  0.4000E+01
    -22.153  0.0000E+00  0.4000E+01
    -22.039  0.0000E+00  0.4000E+01
    -21.925  0.0000E+00  0.4000E+01
    -21.811  0.0000E+00  0.4000E+01
    -21.697  0.0000E+00  0.4000E+01
    -21.583  0.4727E-11  0.4000E+01
    -21.469  0.5721E-03  0.4000E+01
    -21.355  0.3866E+01  0.4441E+01
    -21.242  0.1356E+02  0.5986E+01
    -21.128  0.1252E+00  0.6000E+01
    -21.014  0.1235E-06  0.6000E+01
    -20.900  0.0000E+00  0.6000E+01
    -20.786  0.0000E+00  0.6000E+01
    -20.672  0.0000E+00  0.6000E+01
    -20.558  0.0000E+00  0.6000E+01
    -20.444  0.0000E+00  0.6000E+01
    -20.330  0.0000E+00  0.6000E+01
    -20.216  0.0000E+00  0.6000E+01
    -20.102  0.0000E+00  0.6000E+01
    -19.988  0.0000E+00  0.6000E+01
    -19.874  0.0000E+00  0.6000E+01
    -19.760  0.0000E+00  0.6000E+01
    -19.647  0.0000E+00  0.6000E+01
    -19.533  0.0000E+00  0.6000E+01
    -19.419  0.0000E+00  0.6000E+01
    -19.305  0.0000E+00  0.6000E+01
    -19.191  0.0000E+00  0.6000E+01
    -19.077  0.0000E+00  0.6000E+01
    -18.963  0.0000E+00  0.6000E+01
    -18.849  0.0000E+00  0.6000E+01
    -18.735  0.0000E+00  0.6000E+01
    -18.621  0.0000E+00  0.6000E+01
    -18.507  0.0000E+00  0.6000E+01
    -18.393  0.0000E+00  0.6000E+01
    -18.279  0.0000E+00  0.6000E+01
    -18.165  0.0000E+00  0.6000E+01
    -18.052  0.0000E+00  0.6000E+01
    -17.938  0.0000E+00  0.6000E+01
    -17.824  0.0000E+00  0.6000E+01
    -17.710  0.0000E+00  0.6000E+01
    -17.596  0.0000E+00  0.6000E+01
    -17.482  0.0000E+00  0.6000E+01
    -17.368  0.0000E+00  0.6000E+01
    -17.254  0.0000E+00  0.6000E+01
    -17.140  0.0000E+00  0.6000E+01
    -17.026  0.0000E+00  0.6000E+01
    -16.912  0.0000E+00  0.6000E+01
    -16.798  0.0000E+00  0.6000E+01
    -16.684  0.0000E+00  0.6000E+01
    -16.570  0.0000E+00  0.6000E+01
    -16.457  0.0000E+00  0.6000E+01
    -16.343  0.0000E+00  0.6000E+01
    -16.229  0.0000E+00  0.6000E+01
    -16.115  0.0000E+00  0.6000E+01
    -16.001  0.0000E+00  0.6000E+01
    -15.887  0.0000E+00  0.6000E+01
    -15.773  0.0000E+00  0.6000E+01
    -15.659  0.0000E+00  0.6000E+01
    -15.545  0.0000E+00  0.6000E+01
    -15.431  0.0000E+00  0.6000E+01
    -15.317  0.0000E+00  0.6000E+01
    -15.203  0.0000E+00  0.6000E+01
    -15.089  0.0000E+00  0.6000E+01
    -14.975  0.0000E+00  0.6000E+01
    -14.862  0.0000E+00  0.6000E+01
    -14.748  0.0000E+00  0.6000E+01
    -14.634  0.0000E+00  0.6000E+01
    -14.520  0.0000E+00  0.6000E+01
    -14.406  0.0000E+00  0.6000E+01
    -14.292  0.0000E+00  0.6000E+01
    -14.178  0.0000E+00  0.6000E+01
    -14.064  0.0000E+00  0.6000E+01
    -13.950  0.0000E+00  0.6000E+01
    -13.836  0.0000E+00  0.6000E+01
    -13.722  0.0000E+00  0.6000E+01
    -13.608  0.0000E+00  0.6000E+01
    -13.494  0.0000E+00  0.6000E+01
    -13.380  0.0000E+00  0.6000E+01
    -13.267  0.0000E+00  0.6000E+01
    -13.153  0.0000E+00  0.6000E+01
    -13.039  0.0000E+00  0.6000E+01
    -12.925  0.0000E+00  0.6000E+01
    -12.811  0.0000E+00  0.6000E+01
    -12.697  0.0000E+00  0.6000E+01
    -12.583  0.0000E+00  0.6000E+01
    -12.469  0.0000E+00  0.6000E+01
    -12.355  0.0000E+00  0.6000E+01
    -12.241  0.0000E+00  0.6000E+01
    -12.127  0.0000E+00  0.6000E+01
    -12.013  0.0000E+00  0.6000E+01
    -11.899  0.0000E+00  0.6000E+01
    -11.785  0.0000E+00  0.6000E+01
    -11.672  0.0000E+00  0.6000E+01
    -11.558  0.0000E+00  0.6000E+01
    -11.444  0.0000E+00  0.6000E+01
    -11.330  0.0000E+00  0.6000E+01
    -11.216  0.0000E+00  0.6000E+01
    -11.102  0.0000E+00  0.6000E+01
    -10.988  0.0000E+00  0.6000E+01
    -10.874  0.0000E+00  0.6000E+01
    -10.760  0.0000E+00  0.6000E+01
    -10.646  0.0000E+00  0.6000E+01
    -10.532  0.0000E+00  0.6000E+01
    -10.418  0.7195E-15  0.6000E+01
    -10.304  0.1173E-05  0.6000E+01
    -10.191  0.1784E+00  0.6020E+01
    -10.077  0.1727E+02  0.7988E+01
     -9.963  0.4735E+02  0.1338E+02
     -9.849  0.3872E+02  0.1779E+02
     -9.735  0.1815E+01  0.1800E+02
     -9.621  0.7040E-04  0.1800E+02
     -9.507  0.2454E-12  0.1800E+02
     -9.393  0.0000E+00  0.1800E+02
     -9.279  0.0000E+00  0.1800E+02
     -9.165  0.0000E+00  0.1800E+02
     -9.051  0.0000E+00  0.1800E+02
     -8.937  0.0000E+00  0.1800E+02
     -8.823  0.0000E+00  0.1800E+02
     -8.709  0.0000E+00  0.1800E+02
     -8.596  0.0000E+00  0.1800E+02
     -8.482  0.1713E-15  0.1800E+02
     -8.368  0.5226E-06  0.1800E+02
     -8.254  0.1258E+00  0.1801E+02
     -8.140  0.1978E+02  0.2027E+02
     -8.026  0.3234E+02  0.2395E+02
     -7.912  0.4166E+00  0.2400E+02
     -7.798  0.1621E-05  0.2400E+02
     -7.684  0.0000E+00  0.2400E+02
     -7.570  0.0000E+00  0.2400E+02
     -7.456  0.0000E+00  0.2400E+02
     -7.342  0.0000E+00  0.2400E+02
     -7.228  0.0000E+00  0.2400E+02
     -7.114  0.0000E+00  0.2400E+02
     -7.001  0.0000E+00  0.2400E+02
     -6.887  0.0000E+00  0.2400E+02
     -6.773  0.0000E+00  0.2400E+02
     -6.659  0.0000E+00  0.2400E+02
     -6.545  0.0000E+00  0.2400E+02
     -6.431  0.0000E+00  0.2400E+02
     -6.317  0.0000E+00  0.2400E+02
     -6.203  0.0000E+00  0.2400E+02
     -6.089  0.0000E+00  0.2400E+02
     -5.975  0.0000E+00  0.2400E+02
     -5.861  0.0000E+00  0.2400E+02
     -5.747  0.0000E+00  0.2400E+02
     -5.633  0.1903E-17  0.2400E+02
     -5.519  0.5511E-08  0.2400E+02
     -5.406  0.2344E-02  0.2400E+02
     -5.292  0.7099E+00  0.2408E+02
     -5.178  0.1113E+02  0.2535E+02
     -5.064  0.5707E+01  0.2600E+02
     -4.950  0.4436E-02  0.2600E+02
     -4.836  0.2832E-09  0.2600E+02
     -4.722  0.0000E+00  0.2600E+02
     -4.608  0.0000E+00  0.2600E+02
     -4.494  0.0000E+00  0.2600E+02
     -4.380  0.0000E+00  0.2600E+02
     -4.266  0.0000E+00  0.2600E+02
     -4.152  0.0000E+00  0.2600E+02
     -4.038  0.0000E+00  0.2600E+02
     -3.924  0.0000E+00  0.2600E+02
     -3.811  0.0000E+00  0.2600E+02
     -3.697  0.0000E+00  0.2600E+02
     -3.583  0.0000E+00  0.2600E+02
     -3.469  0.0000E+00  0.2600E+02
     -3.355  0.0000E+00  0.2600E+02
     -3.241  0.0000E+00  0.2600E+02
     -3.127  0.0000E+00  0.2600E+02
     -3.013  0.0000E+00  0.2600E+02
     -2.899  0.0000E+00  0.2600E+02
     -2.785  0.0000E+00  0.2600E+02
     -2.671  0.0000E+00  0.2600E+02
     -2.557  0.0000E+00  0.2600E+02
     -2.443  0.0000E+00  0.2600E+02
     -2.329  0.0000E+00  0.2600E+02
     -2.216  0.0000E+00  0.2600E+02
     -2.102  0.0000E+00  0.2600E+02
     -1.988  0.0000E+00  0.2600E+02
     -1.874  0.0000E+00  0.2600E+02
     -1.760  0.0000E+00  0.2600E+02
     -1.646  0.0000E+00  0.2600E+02
     -1.532  0.0000E+00  0.2600E+02
     -1.418  0.0000E+00  0.2600E+02
     -1.304  0.0000E+00  0.2600E+02
     -1.190  0.0000E+00  0.2600E+02
     -1.076  0.0000E+00  0.2600E+02
     -0.962  0.0000E+00  0.2600E+02
     -0.848  0.0000E+00  0.2600E+02
     -0.734  0.0000E+00  0.2600E+02
     -0.621  0.0000E+00  0.2600E+02
     -0.507  0.0000E+00  0.2600E+02
     -0.393  0.0000E+00  0.2600E+02
     -0.279  0.0000E+00  0.2600E+02
     -0.165  0.0000E+00  0.2600E+02
     -0.051  0.0000E+00  0.2600E+02
      0.063  0.0000E+00  0.2600E+02
      0.177  0.0000E+00  0.2600E+02
      0.291  0.0000E+00  0.2600E+02
      0.405  0.0000E+00  0.2600E+02
      0.519  0.0000E+00  0.2600E+02
      0.633  0.1628E-07  0.2600E+02
      0.747  0.3601E-02  0.2600E+02
      0.861  0.5835E+00  0.2607E+02
      0.974  0.5891E+01  0.2674E+02
      1.088  0.6270E+01  0.2745E+02
      1.202  0.3756E+01  0.2788E+02
      1.316  0.8394E+00  0.2798E+02
      1.430  0.4155E+01  0.2845E+02
      1.544  0.9117E+01  0.2949E+02
      1.658  0.1227E+02  0.3089E+02
      1.772  0.8191E+01  0.3182E+02
      1.886  0.1571E+01  0.3200E+02
      2.000  0.1282E-01  0.3200E+02
      2.114  0.4720E-07  0.3200E+02
      2.228  0.4077E-12  0.3200E+02
      2.342  0.9319E-05  0.3200E+02
      2.456  0.1394E-01  0.3200E+02
      2.569  0.2029E-01  0.3200E+02
      2.683  0.4839E-04  0.3200E+02
      2.797  0.3150E-06  0.3200E+02
      2.911  0.2069E-01  0.3201E+02
      3.025  0.4141E+00  0.3205E+02
      3.139  0.1001E+00  0.3206E+02
      3.253  0.5340E-01  0.3207E+02
      3.367  0.7756E+00  0.3216E+02
      3.481  0.8739E+00  0.3226E+02
      3.595  0.1179E+01  0.3239E+02
      3.709  0.1950E+01  0.3262E+02
      3.823  0.1990E+01  0.3284E+02
      3.937  0.5449E+01  0.3346E+02
      4.051  0.5856E+01  0.3413E+02
      4.164  0.5410E+01  0.3475E+02
      4.278  0.5244E+01  0.3534E+02
      4.392  0.6603E+01  0.3610E+02
      4.506  0.3190E+01  0.3646E+02
      4.620  0.4405E+01  0.3696E+02
      4.734  0.5161E+01  0.3755E+02
      4.848  0.7669E+01  0.3842E+02
      4.962  0.8477E+01  0.3939E+02
      5.076  0.3954E+01  0.3984E+02
      5.190  0.1225E+01  0.3998E+02
      5.304  0.1826E+00  0.4000E+02
      5.418  0.2085E-02  0.4000E+02
      5.532  0.6904E-08  0.4000E+02
      5.645  0.0000E+00  0.4000E+02
      5.759  0.0000E+00  0.4000E+02
      5.873  0.0000E+00  0.4000E+02
      5.987  0.0000E+00  0.4000E+02
      6.101  0.0000E+00  0.4000E+02
      6.215  0.0000E+00  0.4000E+02
      6.329  0.0000E+00  0.4000E+02
      6.443  0.0000E+00  0.4000E+02
      6.557  0.0000E+00  0.4000E+02
      6.671  0.0000E+00  0.4000E+02
      6.785  0.0000E+00  0.4000E+02
