    4    4    1    1
  0.4638570E+02  0.6402059E-09  0.6402059E-09  0.6402059E-09  0.5000000E-15
  1.000000000000000E-004
  CAR 
 unknown system                          
     32     29     20
 
  0.0000000E+00  0.0000000E+00  0.0000000E+00  0.1953125E-02
    1      -25.840067   1.000000
    2      -25.820515   1.000000
    3      -21.326131   1.000000
    4      -10.028949   1.000000
    5      -10.028947   1.000000
    6      -10.028947   1.000000
    7       -9.937986   1.000000
    8       -9.937983   1.000000
    9       -9.937983   1.000000
   10       -8.138426   1.000000
   11       -8.138417   1.000000
   12       -8.138417   1.000000
   13       -5.338091   1.000000
   14        1.725830   1.000000
   15        1.725830   1.000000
   16        1.725846   1.000000
   17        2.463851   0.000000
   18        3.694298   0.000000
   19        3.694298   0.000000
   20        4.751607   0.000000
 
  0.1250000E+00  0.0000000E+00  0.0000000E+00  0.1562500E-01
    1      -25.839245   1.000000
    2      -25.821204   1.000000
    3      -21.326419   1.000000
    4      -10.035814   1.000000
    5      -10.027752   1.000000
    6      -10.027751   1.000000
    7       -9.942186   1.000000
    8       -9.942184   1.000000
    9       -9.933885   1.000000
   10       -8.143992   1.000000
   11       -8.134507   1.000000
   12       -8.134500   1.000000
   13       -5.310278   1.000000
   14        1.404934   1.000000
   15        1.680457   1.000000
   16        1.680471   1.000000
   17        2.964474   0.000000
   18        3.878663   0.000000
   19        3.878664   0.000000
   20        4.590908   0.000000
 
  0.2500000E+00  0.0000000E+00  0.0000000E+00  0.1562500E-01
    1      -25.836955   1.000000
    2      -25.823185   1.000000
    3      -21.327138   1.000000
    4      -10.041487   1.000000
    5      -10.023917   1.000000
    6      -10.023915   1.000000
    7       -9.953276   1.000000
    8       -9.953275   1.000000
    9       -9.936794   1.000000
   10       -8.152449   1.000000
   11       -8.125067   1.000000
   12       -8.125060   1.000000
   13       -5.249416   1.000000
   14        1.067161   1.000000
   15        1.593335   1.000000
   16        1.593349   1.000000
   17        3.711351   0.000000
   18        4.351474   0.000000
   19        4.351476   0.000000
   20        4.428328   0.000000
 
  0.3750000E+00  0.0000000E+00  0.0000000E+00  0.1562500E-01
    1      -25.833631   1.000000
    2      -25.826199   1.000000
    3      -21.327864   1.000000
    4      -10.034019   1.000000
    5      -10.017746   1.000000
    6      -10.017743   1.000000
    7       -9.966676   1.000000
    8       -9.966676   1.000000
    9       -9.955106   1.000000
   10       -8.154915   1.000000
   11       -8.115659   1.000000
   12       -8.115651   1.000000
   13       -5.196295   1.000000
   14        0.877967   1.000000
   15        1.527628   1.000000
   16        1.527641   1.000000
   17        4.106170   0.000000
   18        4.779149   0.000000
   19        4.779156   0.000000
   20        4.849718   0.000000
 
  0.5000000E+00  0.0000000E+00  0.0000000E+00  0.7812500E-02
    1      -25.829936   1.000000
    2      -25.829768   1.000000
    3      -21.328166   1.000000
    4      -10.024662   1.000000
    5      -10.013741   1.000000
    6      -10.013738   1.000000
    7       -9.973661   1.000000
    8       -9.973660   1.000000
    9       -9.969490   1.000000
   10       -8.154477   1.000000
   11       -8.111770   1.000000
   12       -8.111763   1.000000
   13       -5.176224   1.000000
   14        0.815353   1.000000
   15        1.504912   1.000000
   16        1.504924   1.000000
   17        4.407445   0.000000
   18        4.791433   0.000000
   19        4.835406   0.000000
   20        4.835409   0.000000
 
  0.1250000E+00  0.1250000E+00  0.0000000E+00  0.1171875E-01
    1      -25.839008   1.000000
    2      -25.821397   1.000000
    3      -21.326517   1.000000
    4      -10.043320   1.000000
    5      -10.043319   1.000000
    6      -10.007148   1.000000
    7       -9.958828   1.000000
    8       -9.929683   1.000000
    9       -9.929682   1.000000
   10       -8.151754   1.000000
   11       -8.130338   1.000000
   12       -8.130332   1.000000
   13       -5.302232   1.000000
   14        1.267290   1.000000
   15        1.741364   1.000000
   16        1.741375   1.000000
   17        2.990369   0.000000
   18        3.798271   0.000000
   19        4.101948   0.000000
   20        4.442453   0.000000
 
  0.2500000E+00  0.1250000E+00  0.0000000E+00  0.4687500E-01
    1      -25.837313   1.000000
    2      -25.822843   1.000000
    3      -21.327094   1.000000
    4      -10.054746   1.000000
    5      -10.052549   1.000000
    6       -9.988883   1.000000
    7       -9.979986   1.000000
    8       -9.927639   1.000000
    9       -9.925472   1.000000
   10       -8.160696   1.000000
   11       -8.123131   1.000000
   12       -8.120844   1.000000
   13       -5.256095   1.000000
   14        1.037533   1.000000
   15        1.659518   1.000000
   16        1.709657   1.000000
   17        3.515613   0.000000
   18        4.072115   0.000000
   19        4.190331   0.000000
   20        4.588913   0.000000
 
  0.3750000E+00  0.1250000E+00  0.0000000E+00  0.4687500E-01
    1      -25.834494   1.000000
    2      -25.825352   1.000000
    3      -21.327831   1.000000
    4      -10.056069   1.000000
    5      -10.052278   1.000000
    6      -10.009132   1.000000
    7       -9.964810   1.000000
    8       -9.936136   1.000000
    9       -9.934985   1.000000
   10       -8.159238   1.000000
   11       -8.118038   1.000000
   12       -8.111601   1.000000
   13       -5.206206   1.000000
   14        0.925053   1.000000
   15        1.526130   1.000000
   16        1.627373   1.000000
   17        3.935400   0.000000
   18        4.413365   0.000000
   19        4.559701   0.000000
   20        4.848432   0.000000
 
  0.5000000E+00  0.1250000E+00  0.0000000E+00  0.4687500E-01
    1      -25.831062   1.000000
    2      -25.828595   1.000000
    3      -21.328270   1.000000
    4      -10.056247   1.000000
    5      -10.041018   1.000000
    6      -10.019253   1.000000
    7       -9.961822   1.000000
    8       -9.949115   1.000000
    9       -9.941989   1.000000
   10       -8.151782   1.000000
   11       -8.116565   1.000000
   12       -8.107976   1.000000
   13       -5.179128   1.000000
   14        0.891647   1.000000
   15        1.464559   1.000000
   16        1.549108   1.000000
   17        4.195523   0.000000
   18        4.673570   0.000000
   19        4.809247   0.000000
   20        4.955673   0.000000
 
 -0.3750000E+00  0.1250000E+00  0.0000000E+00  0.4687500E-01
    1      -25.832136   1.000000
    2      -25.827564   1.000000
    3      -21.328173   1.000000
    4      -10.064844   1.000000
    5      -10.020216   1.000000
    6      -10.012531   1.000000
    7       -9.976587   1.000000
    8       -9.966910   1.000000
    9       -9.925201   1.000000
   10       -8.150119   1.000000
   11       -8.116651   1.000000
   12       -8.112085   1.000000
   13       -5.184508   1.000000
   14        0.904192   1.000000
   15        1.503879   1.000000
   16        1.514925   1.000000
   17        4.180402   0.000000
   18        4.561962   0.000000
   19        4.781771   0.000000
   20        4.886722   0.000000
 
 -0.2500000E+00  0.1250000E+00  0.0000000E+00  0.4687500E-01
    1      -25.835445   1.000000
    2      -25.824504   1.000000
    3      -21.327583   1.000000
    4      -10.065245   1.000000
    5      -10.023081   1.000000
    6       -9.997652   1.000000
    7       -9.982311   1.000000
    8       -9.961013   1.000000
    9       -9.916911   1.000000
   10       -8.153630   1.000000
   11       -8.121561   1.000000
   12       -8.118680   1.000000
   13       -5.220757   1.000000
   14        0.976357   1.000000
   15        1.510898   1.000000
   16        1.641902   1.000000
   17        3.869854   0.000000
   18        4.312833   0.000000
   19        4.546112   0.000000
   20        4.728700   0.000000
 
 -0.1250000E+00  0.1250000E+00  0.0000000E+00  0.2343750E-01
    1      -25.837971   1.000000
    2      -25.822288   1.000000
    3      -21.326859   1.000000
    4      -10.052723   1.000000
    5      -10.030393   1.000000
    6      -10.009303   1.000000
    7       -9.963531   1.000000
    8       -9.944190   1.000000
    9       -9.922684   1.000000
   10       -8.151338   1.000000
   11       -8.130865   1.000000
   12       -8.125523   1.000000
   13       -5.273322   1.000000
   14        1.156527   1.000000
   15        1.578478   1.000000
   16        1.732257   1.000000
   17        3.369513   0.000000
   18        4.082738   0.000000
   19        4.275126   0.000000
   20        4.377593   0.000000
 
  0.2500000E+00  0.2500000E+00  0.0000000E+00  0.1171875E-01
    1      -25.836458   1.000000
    2      -25.823532   1.000000
    3      -21.327485   1.000000
    4      -10.074030   1.000000
    5      -10.074028   1.000000
    6      -10.009320   1.000000
    7       -9.953816   1.000000
    8       -9.913095   1.000000
    9       -9.913094   1.000000
   10       -8.177410   1.000000
   11       -8.111430   1.000000
   12       -8.111424   1.000000
   13       -5.235073   1.000000
   14        0.914032   1.000000
   15        1.776379   1.000000
   16        1.776389   1.000000
   17        3.609795   0.000000
   18        3.827211   0.000000
   19        4.108658   0.000000
   20        4.956924   0.000000
 
  0.3750000E+00  0.2500000E+00  0.0000000E+00  0.4687500E-01
    1      -25.834577   1.000000
    2      -25.825160   1.000000
    3      -21.328071   1.000000
    4      -10.085547   1.000000
    5      -10.083284   1.000000
    6      -10.033801   1.000000
    7       -9.927560   1.000000
    8       -9.913259   1.000000
    9       -9.910664   1.000000
   10       -8.179975   1.000000
   11       -8.105293   1.000000
   12       -8.102348   1.000000
   13       -5.204907   1.000000
   14        0.907203   1.000000
   15        1.683133   1.000000
   16        1.747563   1.000000
   17        3.658103   0.000000
   18        4.016742   0.000000
   19        4.450419   0.000000
   20        4.890916   0.000000
 
  0.5000000E+00  0.2500000E+00  0.0000000E+00  0.4687500E-01
    1      -25.832031   1.000000
    2      -25.827517   1.000000
    3      -21.328517   1.000000
    4      -10.095071   1.000000
    5      -10.077364   1.000000
    6      -10.036649   1.000000
    7       -9.935389   1.000000
    8       -9.919326   1.000000
    9       -9.906111   1.000000
   10       -8.164955   1.000000
   11       -8.109769   1.000000
   12       -8.098866   1.000000
   13       -5.184017   1.000000
   14        1.012156   1.000000
   15        1.474332   1.000000
   16        1.658645   1.000000
   17        3.808121   0.000000
   18        4.305713   0.000000
   19        4.804655   0.000000
   20        4.858579   0.000000
 
 -0.3750000E+00  0.2500000E+00  0.0000000E+00  0.4687500E-01
    1      -25.830292   1.000000
    2      -25.829240   1.000000
    3      -21.328561   1.000000
    4      -10.099834   1.000000
    5      -10.056694   1.000000
    6      -10.016421   1.000000
    7       -9.968698   1.000000
    8       -9.937079   1.000000
    9       -9.895273   1.000000
   10       -8.143155   1.000000
   11       -8.123802   1.000000
   12       -8.103006   1.000000
   13       -5.179479   1.000000
   14        1.084717   1.000000
   15        1.377236   1.000000
   16        1.562719   1.000000
   17        4.136710   0.000000
   18        4.246360   0.000000
   19        4.801609   0.000000
   20        4.824851   0.000000
 
 -0.2500000E+00  0.2500000E+00  0.0000000E+00  0.2343750E-01
    1      -25.833081   1.000000
    2      -25.826614   1.000000
    3      -21.328170   1.000000
    4      -10.089645   1.000000
    5      -10.025353   1.000000
    6      -10.001974   1.000000
    7       -9.987170   1.000000
    8       -9.961495   1.000000
    9       -9.897976   1.000000
   10       -8.143913   1.000000
   11       -8.123385   1.000000
   12       -8.112402   1.000000
   13       -5.192731   1.000000
   14        0.998689   1.000000
   15        1.502842   1.000000
   16        1.529214   1.000000
   17        4.079511   0.000000
   18        4.370277   0.000000
   19        4.520341   0.000000
   20        4.737659   0.000000
 
  0.3750000E+00  0.3750000E+00  0.0000000E+00  0.1171875E-01
    1      -25.833904   1.000000
    2      -25.825662   1.000000
    3      -21.328458   1.000000
    4      -10.101884   1.000000
    5      -10.101882   1.000000
    6      -10.059905   1.000000
    7       -9.899413   1.000000
    8       -9.898625   1.000000
    9       -9.898625   1.000000
   10       -8.194786   1.000000
   11       -8.093353   1.000000
   12       -8.093347   1.000000
   13       -5.195956   1.000000
   14        0.926974   1.000000
   15        1.807738   1.000000
   16        1.807749   1.000000
   17        3.323399   0.000000
   18        3.939731   0.000000
   19        4.619459   0.000000
   20        4.822219   0.000000
 
  0.5000000E+00  0.3750000E+00  0.0000000E+00  0.4687500E-01
    1      -25.832641   1.000000
    2      -25.826795   1.000000
    3      -21.328758   1.000000
    4      -10.112822   1.000000
    5      -10.103480   1.000000
    6      -10.063993   1.000000
    7       -9.905592   1.000000
    8       -9.899699   1.000000
    9       -9.883890   1.000000
   10       -8.189117   1.000000
   11       -8.093318   1.000000
   12       -8.089823   1.000000
   13       -5.187017   1.000000
   14        1.032155   1.000000
   15        1.676852   1.000000
   16        1.771855   1.000000
   17        3.367744   0.000000
   18        3.884441   0.000000
   19        4.926159   0.000000
   20        4.951256   0.000000
 
 -0.3750000E+00  0.3750000E+00  0.0000000E+00  0.2343750E-01
    1      -25.831008   1.000000
    2      -25.828413   1.000000
    3      -21.328804   1.000000
    4      -10.116790   1.000000
    5      -10.087274   1.000000
    6      -10.042692   1.000000
    7       -9.933912   1.000000
    8       -9.913136   1.000000
    9       -9.881688   1.000000
   10       -8.166412   1.000000
   11       -8.106647   1.000000
   12       -8.093799   1.000000
   13       -5.181033   1.000000
   14        1.175105   1.000000
   15        1.394504   1.000000
   16        1.670756   1.000000
   17        3.723620   0.000000
   18        3.992054   0.000000
   19        4.912191   0.000000
   20        5.161652   0.000000
 
  0.5000000E+00  0.5000000E+00  0.0000000E+00  0.5859375E-02
    1      -25.832843   1.000000
    2      -25.826545   1.000000
    3      -21.328860   1.000000
    4      -10.112910   1.000000
    5      -10.112908   1.000000
    6      -10.080852   1.000000
    7       -9.892939   1.000000
    8       -9.892938   1.000000
    9       -9.876552   1.000000
   10       -8.199776   1.000000
   11       -8.086097   1.000000
   12       -8.086091   1.000000
   13       -5.188030   1.000000
   14        1.032595   1.000000
   15        1.819612   1.000000
   16        1.819623   1.000000
   17        3.136097   0.000000
   18        3.728063   0.000000
   19        4.935492   0.000000
   20        5.231210   0.000000
 
  0.3750000E+00  0.2500000E+00  0.1250000E+00  0.4687500E-01
    1      -25.835469   1.000000
    2      -25.824436   1.000000
    3      -21.327685   1.000000
    4      -10.078301   1.000000
    5      -10.049772   1.000000
    6      -10.009383   1.000000
    7       -9.960103   1.000000
    8       -9.940549   1.000000
    9       -9.908270   1.000000
   10       -8.165325   1.000000
   11       -8.114597   1.000000
   12       -8.113749   1.000000
   13       -5.219687   1.000000
   14        0.943723   1.000000
   15        1.600599   1.000000
   16        1.698558   1.000000
   17        3.843863   0.000000
   18        4.000793   0.000000
   19        4.398642   0.000000
   20        4.890198   0.000000
 
  0.5000000E+00  0.2500000E+00  0.1250000E+00  0.9375000E-01
    1      -25.832801   1.000000
    2      -25.826852   1.000000
    3      -21.328272   1.000000
    4      -10.092963   1.000000
    5      -10.038954   1.000000
    6      -10.027704   1.000000
    7       -9.965455   1.000000
    8       -9.935705   1.000000
    9       -9.904474   1.000000
   10       -8.155643   1.000000
   11       -8.117869   1.000000
   12       -8.104836   1.000000
   13       -5.189483   1.000000
   14        0.974950   1.000000
   15        1.505031   1.000000
   16        1.588527   1.000000
   17        4.007711   0.000000
   18        4.299898   0.000000
   19        4.623309   0.000000
   20        4.934342   0.000000
 
 -0.3750000E+00  0.2500000E+00  0.1250000E+00  0.4687500E-01
    1      -25.829818   1.000000
    2      -25.829733   1.000000
    3      -21.328515   1.000000
    4      -10.097675   1.000000
    5      -10.045266   1.000000
    6      -10.012669   1.000000
    7       -9.986871   1.000000
    8       -9.919068   1.000000
    9       -9.911956   1.000000
   10       -8.144498   1.000000
   11       -8.125386   1.000000
   12       -8.101081   1.000000
   13       -5.178466   1.000000
   14        1.024504   1.000000
   15        1.411815   1.000000
   16        1.562094   1.000000
   17        4.238741   0.000000
   18        4.260641   0.000000
   19        4.724824   0.000000
   20        5.055723   0.000000
 
  0.5000000E+00  0.3750000E+00  0.1250000E+00  0.4687500E-01
    1      -25.832963   1.000000
    2      -25.826581   1.000000
    3      -21.328512   1.000000
    4      -10.112616   1.000000
    5      -10.073301   1.000000
    6      -10.050190   1.000000
    7       -9.931473   1.000000
    8       -9.903543   1.000000
    9       -9.895153   1.000000
   10       -8.177342   1.000000
   11       -8.104661   1.000000
   12       -8.094236   1.000000
   13       -5.189529   1.000000
   14        0.989640   1.000000
   15        1.645287   1.000000
   16        1.670658   1.000000
   17        3.642199   0.000000
   18        4.056291   0.000000
   19        4.744012   0.000000
   20        4.834736   0.000000
 
 -0.3750000E+00  0.3750000E+00  0.1250000E+00  0.9375000E-01
    1      -25.830929   1.000000
    2      -25.828511   1.000000
    3      -21.328761   1.000000
    4      -10.127004   1.000000
    5      -10.060190   1.000000
    6      -10.038295   1.000000
    7       -9.964271   1.000000
    8       -9.896875   1.000000
    9       -9.888689   1.000000
   10       -8.158171   1.000000
   11       -8.118090   1.000000
   12       -8.091011   1.000000
   13       -5.180841   1.000000
   14        1.153815   1.000000
   15        1.416475   1.000000
   16        1.620430   1.000000
   17        3.888126   0.000000
   18        4.053656   0.000000
   19        4.674200   0.000000
   20        4.988910   0.000000
 
 -0.2500000E+00  0.3750000E+00  0.1250000E+00  0.4687500E-01
    1      -25.830690   1.000000
    2      -25.828795   1.000000
    3      -21.328657   1.000000
    4      -10.120203   1.000000
    5      -10.050302   1.000000
    6      -10.002310   1.000000
    7      -10.002091   1.000000
    8       -9.911534   1.000000
    9       -9.888395   1.000000
   10       -8.138721   1.000000
   11       -8.133935   1.000000
   12       -8.095663   1.000000
   13       -5.180569   1.000000
   14        1.152294   1.000000
   15        1.373666   1.000000
   16        1.570732   1.000000
   17        4.061425   0.000000
   18        4.345702   0.000000
   19        4.353797   0.000000
   20        5.104430   0.000000
 
 -0.3750000E+00  0.5000000E+00  0.1250000E+00  0.2343750E-01
    1      -25.831923   1.000000
    2      -25.827468   1.000000
    3      -21.328862   1.000000
    4      -10.130232   1.000000
    5      -10.082799   1.000000
    6      -10.063371   1.000000
    7       -9.927535   1.000000
    8       -9.890599   1.000000
    9       -9.878909   1.000000
   10       -8.180954   1.000000
   11       -8.100842   1.000000
   12       -8.086342   1.000000
   13       -5.183972   1.000000
   14        1.104015   1.000000
   15        1.616512   1.000000
   16        1.690751   1.000000
   17        3.510804   0.000000
   18        3.827667   0.000000
   19        4.957735   0.000000
   20        4.978128   0.000000
 
 -0.2500000E+00  0.5000000E+00  0.2500000E+00  0.1171875E-01
    1      -25.829700   1.000000
    2      -25.829694   1.000000
    3      -21.328873   1.000000
    4      -10.141200   1.000000
    5      -10.052246   1.000000
    6      -10.007389   1.000000
    7      -10.007388   1.000000
    8       -9.885878   1.000000
    9       -9.883648   1.000000
   10       -8.138889   1.000000
   11       -8.138882   1.000000
   12       -8.086593   1.000000
   13       -5.179892   1.000000
   14        1.311147   1.000000
   15        1.311161   1.000000
   16        1.579397   1.000000
   17        3.904303   0.000000
   18        4.276421   0.000000
   19        4.276428   0.000000
   20        4.964780   0.000000
