 vasp.5.4.4.18Apr17-6-g9f103f2a35 (build Jun 23 2019 17:35:09) complex          
  
 executed on             LinuxIFC date 2020.01.15  15:39:43
 running on   28 total cores
 distrk:  each k-point on    7 cores,    4 groups
 distr:  one band on NCORES_PER_BAND=   7 cores,    1 groups


--------------------------------------------------------------------------------------------------------


 INCAR:
 POTCAR:    PAW_PBE Cs_sv 08Apr2002               
 POTCAR:    PAW_PBE Rb_sv 06Sep2000               
 POTCAR:    PAW_PBE Sb 06Sep2000                  

 ----------------------------------------------------------------------------- 
|                                                                             |
|           W    W    AA    RRRRR   N    N  II  N    N   GGGG   !!!           |
|           W    W   A  A   R    R  NN   N  II  NN   N  G    G  !!!           |
|           W    W  A    A  R    R  N N  N  II  N N  N  G       !!!           |
|           W WW W  AAAAAA  RRRRR   N  N N  II  N  N N  G  GGG   !            |
|           WW  WW  A    A  R   R   N   NN  II  N   NN  G    G                |
|           W    W  A    A  R    R  N    N  II  N    N   GGGG   !!!           |
|                                                                             |
|      You have enabled k-point parallelism (KPAR>1).                         |
|      This developmental code was originally  written by Paul Kent at ORNL,  |
|      and carefully double checked in Vienna.                                |
|      GW as well as linear response parallelism added by Martijn Marsman     |
|      and Georg Kresse.                                                      |
|      Carefully verify results versus KPAR=1.                                |
|      Report problems to Paul Kent and Vienna.                               |
|                                                                             |
 ----------------------------------------------------------------------------- 

 POTCAR:    PAW_PBE Cs_sv 08Apr2002               
   VRHFIN =Cs: 5s5p6s                                                           
   LEXCH  = PE                                                                  
   EATOM  =   555.6835 eV,   40.8416 Ry                                         
                                                                                
   TITEL  = PAW_PBE Cs_sv 08Apr2002                                             
   LULTRA =        F    use ultrasoft PP ?                                      
   IUNSCR =        1    unscreen: 0-lin 1-nonlin 2-no                           
   RPACOR =    2.200    partial core radius                                     
   POMASS =  132.900; ZVAL   =    9.000    mass and valenz                      
   RCORE  =    2.500    outmost cutoff radius                                   
   RWIGS  =    2.500; RWIGS  =    1.323    wigner-seitz radius (au A)           
   ENMAX  =  220.318; ENMIN  =  165.238 eV                                      
   RCLOC  =    2.207    cutoff for local pot                                    
   LCOR   =        T    correct aug charges                                     
   LPAW   =        T    paw PP                                                  
   EAUG   =  407.933                                                            
   DEXC   =    0.000                                                            
   RMAX   =    2.554    core radius for proj-oper                               
   RAUG   =    1.300    factor for augmentation sphere                          
   RDEP   =    2.590    radius for radial grids                                 
   RDEPT  =    2.117    core radius for aug-charge                              
                                                                                
   Atomic configuration                                                         
   13 entries                                                                   
     n  l   j            E        occ.                                          
     1  0  0.50    -35790.1377   2.0000                                         
     2  0  0.50     -5613.6201   2.0000                                         
     2  1  1.50     -5035.0101   6.0000                                         
     3  0  0.50     -1167.0767   2.0000                                         
     3  1  1.50      -980.9754   6.0000                                         
     3  2  2.50      -708.0703  10.0000                                         
     4  0  0.50      -220.2386   2.0000                                         
     4  1  1.50      -160.7596   6.0000                                         
     4  2  2.50       -74.2354  10.0000                                         
     5  0  0.50       -26.7287   2.0000                                         
     6  0  0.50        -2.0862   1.0000                                         
     5  1  1.50       -13.5159   6.0000                                         
     5  2  2.50        -0.4136   0.0000                                         
   Description                                                                  
     l       E           TYP  RCUT    TYP  RCUT                                 
     0    -26.7287425     23  1.900                                             
     0     -2.0862306     23  1.900                                             
     1    -13.5158719     23  2.500                                             
     1     -2.7211652     23  2.500                                             
     2     -0.4136171     23  2.500                                             
  local pseudopotential read in
  partial core-charges read in
  partial kinetic energy density read in
  atomic valenz-charges read in
  non local Contribution for L=           0  read in
    real space projection operators read in
  non local Contribution for L=           0  read in
    real space projection operators read in
  non local Contribution for L=           1  read in
    real space projection operators read in
  non local Contribution for L=           1  read in
    real space projection operators read in
  non local Contribution for L=           2  read in
    real space projection operators read in
    PAW grid and wavefunctions read in
 
   number of l-projection  operators is LMAX  =           5
   number of lm-projection operators is LMMAX =          13
 
 POTCAR:    PAW_PBE Rb_sv 06Sep2000               
   VRHFIN =Rb: 4s4p5s                                                           
   LEXCH  = PE                                                                  
   EATOM  =   662.5034 eV,   48.6926 Ry                                         
                                                                                
   TITEL  = PAW_PBE Rb_sv 06Sep2000                                             
   LULTRA =        F    use ultrasoft PP ?                                      
   IUNSCR =        1    unscreen: 0-lin 1-nonlin 2-no                           
   RPACOR =    2.200    partial core radius                                     
   POMASS =   85.468; ZVAL   =    9.000    mass and valenz                      
   RCORE  =    2.500    outmost cutoff radius                                   
   RWIGS  =    4.570; RWIGS  =    2.418    wigner-seitz radius (au A)           
   ENMAX  =  220.112; ENMIN  =  165.084 eV                                      
   RCLOC  =    2.200    cutoff for local pot                                    
   LCOR   =        T    correct aug charges                                     
   LPAW   =        T    paw PP                                                  
   EAUG   =  423.861                                                            
   DEXC   =    0.000                                                            
   RMAX   =    2.546    core radius for proj-oper                               
   RAUG   =    1.300    factor for augmentation sphere                          
   RDEP   =    2.541    radius for radial grids                                 
   RDEPT  =    2.044    core radius for aug-charge                              
                                                                                
   Atomic configuration                                                         
   10 entries                                                                   
     n  l   j            E        occ.                                          
     1  0  0.50    -15031.5419   2.0000                                         
     2  0  0.50     -2007.8842   2.0000                                         
     2  1  1.50     -1779.8144   6.0000                                         
     3  0  0.50      -297.9619   2.0000                                         
     3  1  1.50      -224.8335   6.0000                                         
     3  2  2.50      -103.9539  10.0000                                         
     4  0  0.50       -31.8932   2.0000                                         
     5  0  0.50        -2.2327   0.9990                                         
     4  1  1.50       -15.9645   6.0000                                         
     4  2  1.50        -0.0020   0.0010                                         
   Description                                                                  
     l       E           TYP  RCUT    TYP  RCUT                                 
     0    -31.8932387     23  2.500                                             
     0     -2.2326525     23  2.500                                             
     1    -15.9644597     23  2.500                                             
     1    -17.3250423     23  2.500                                             
     2     -0.0020100     23  2.500                                             
  local pseudopotential read in
  partial core-charges read in
  partial kinetic energy density read in
  atomic valenz-charges read in
  non local Contribution for L=           0  read in
    real space projection operators read in
  non local Contribution for L=           0  read in
    real space projection operators read in
  non local Contribution for L=           1  read in
    real space projection operators read in
  non local Contribution for L=           1  read in
    real space projection operators read in
  non local Contribution for L=           2  read in
    real space projection operators read in
    PAW grid and wavefunctions read in
 
   number of l-projection  operators is LMAX  =           5
   number of lm-projection operators is LMMAX =          13
 
 POTCAR:    PAW_PBE Sb 06Sep2000                  
   VRHFIN =Sb: s2p3                                                             
   LEXCH  = PE                                                                  
   EATOM  =   149.9515 eV,   11.0211 Ry                                         
                                                                                
   TITEL  = PAW_PBE Sb 06Sep2000                                                
   LULTRA =        F    use ultrasoft PP ?                                      
   IUNSCR =        1    unscreen: 0-lin 1-nonlin 2-no                           
   RPACOR =    2.200    partial core radius                                     
   POMASS =  121.750; ZVAL   =    5.000    mass and valenz                      
   RCORE  =    2.300    outmost cutoff radius                                   
   RWIGS  =    2.980; RWIGS  =    1.577    wigner-seitz radius (au A)           
   ENMAX  =  172.069; ENMIN  =  129.052 eV                                      
   ICORE  =        3    local potential                                         
   LCOR   =        T    correct aug charges                                     
   LPAW   =        T    paw PP                                                  
   EAUG   =  380.513                                                            
   DEXC   =    0.000                                                            
   RMAX   =    2.346    core radius for proj-oper                               
   RAUG   =    1.300    factor for augmentation sphere                          
   RDEP   =    2.360    radius for radial grids                                 
   RDEPT  =    2.192    core radius for aug-charge                              
                                                                                
   Atomic configuration                                                         
   13 entries                                                                   
     n  l   j            E        occ.                                          
     1  0  0.50    -30298.2797   2.0000                                         
     2  0  0.50     -4610.2252   2.0000                                         
     2  1  1.50     -4138.3407   6.0000                                         
     3  0  0.50      -903.8815   2.0000                                         
     3  1  1.50      -750.1337   6.0000                                         
     3  2  2.50      -515.7092  10.0000                                         
     4  0  0.50      -148.8034   2.0000                                         
     4  1  1.50      -101.7581   6.0000                                         
     4  2  2.50       -33.5048  10.0000                                         
     5  0  0.50       -12.8298   2.0000                                         
     5  1  0.50        -4.8276   3.0000                                         
     5  2  1.50        -4.0817   0.0000                                         
     4  3  2.50        -4.0817   0.0000                                         
   Description                                                                  
     l       E           TYP  RCUT    TYP  RCUT                                 
     0    -12.8297861     23  2.300                                             
     0     13.6058260     23  2.300                                             
     1     -4.8275512     23  2.300                                             
     1     -0.7245443     23  2.300                                             
     2     -4.0817478     23  2.300                                             
     3     -1.3605826     23  2.300                                             
  local pseudopotential read in
  partial core-charges read in
  partial kinetic energy density read in
  atomic valenz-charges read in
  non local Contribution for L=           0  read in
    real space projection operators read in
  non local Contribution for L=           0  read in
    real space projection operators read in
  non local Contribution for L=           1  read in
    real space projection operators read in
  non local Contribution for L=           1  read in
    real space projection operators read in
  non local Contribution for L=           2  read in
    real space projection operators read in
    PAW grid and wavefunctions read in
 
   number of l-projection  operators is LMAX  =           5
   number of lm-projection operators is LMMAX =          13
 
  PAW_PBE Cs_sv 08Apr2002               :
 energy of atom  1       EATOM= -555.6835
 kinetic energy error for atom=    0.0016 (will be added to EATOM!!)
  PAW_PBE Rb_sv 06Sep2000               :
 energy of atom  2       EATOM= -662.5034
 kinetic energy error for atom=    0.0006 (will be added to EATOM!!)
  PAW_PBE Sb 06Sep2000                  :
 energy of atom  3       EATOM= -149.9515
 kinetic energy error for atom=    0.0005 (will be added to EATOM!!)
 
 
 POSCAR: Cs Sb Rb                                
  positions in direct lattice
  velocities in cartesian coordinates
 exchange correlation table for  LEXCH =        8
   RHO(1)=    0.500       N(1)  =     2000
   RHO(2)=  100.500       N(2)  =     4000
 


--------------------------------------------------------------------------------------------------------


 ion  position               nearest neighbor table
   1  0.250  0.250  0.250-   2 3.92   3 3.92   3 3.92   3 3.92   2 3.92   2 3.92   2 3.92   3 3.92

   2  0.000  0.000  0.000-   1 3.92   4 3.92   4 3.92   4 3.92   4 3.92   1 3.92   1 3.92   1 3.92
                             3 4.53   3 4.53   3 4.53   3 4.53   3 4.53   3 4.53
   3  0.500  0.500  0.500-   4 3.92   4 3.92   4 3.92   1 3.92   1 3.92   1 3.92   1 3.92   4 3.92
                             2 4.53   2 4.53   2 4.53   2 4.53   2 4.53   2 4.53
   4  0.750  0.750  0.750-   2 3.92   3 3.92   3 3.92   3 3.92   2 3.92   2 3.92   2 3.92   3 3.92

 
  LATTYP: Found a face centered cubic cell.
 ALAT       =     9.0538791497
  
  Lattice vectors:
  
 A1 = (   0.0000000000,   4.5269395748,   4.5269395748)
 A2 = (   4.5269395748,   0.0000000000,   4.5269395748)
 A3 = (   4.5269395748,   4.5269395748,   0.0000000000)


Analysis of symmetry for initial positions (statically):
=====================================================================
 Subroutine PRICEL returns:
 Original cell was already a primitive cell.
 

 Routine SETGRP: Setting up the symmetry group for a 
 face centered cubic supercell.


 Subroutine GETGRP returns: Found 48 space group operations
 (whereof 24 operations were pure point group operations)
 out of a pool of 48 trial point group operations.


The static configuration has the point symmetry T_d .
 The point group associated with its full space group is O_h .


Analysis of symmetry for dynamics (positions and initial velocities):
=====================================================================
 Subroutine PRICEL returns:
 Original cell was already a primitive cell.
 

 Routine SETGRP: Setting up the symmetry group for a 
 face centered cubic supercell.


 Subroutine GETGRP returns: Found 48 space group operations
 (whereof 24 operations were pure point group operations)
 out of a pool of 48 trial point group operations.


The dynamic configuration has the point symmetry T_d .
 The point group associated with its full space group is O_h .


 Subroutine INISYM returns: Found 48 space group operations
 (whereof 24 operations are pure point group operations),
 and found     1 'primitive' translations

 
 
 KPOINTS: KPOINTS                                 

Automatic generation of k-mesh.
Space group operators:
 irot       det(A)        alpha          n_x          n_y          n_z        tau_x        tau_y        tau_z
    1     1.000000     0.000001     1.000000     0.000000     0.000000     0.000000     0.000000     0.000000
    2     1.000000   120.000000    -0.577350    -0.577350    -0.577350     0.000000     0.000000     0.000000
    3     1.000000   120.000000     0.577350     0.577350     0.577350     0.000000     0.000000     0.000000
    4    -1.000000    90.000000     0.000000     0.000000    -1.000000     0.000000     0.000000     0.000000
    5    -1.000000   180.000000     0.000000     0.707107     0.707107     0.000000     0.000000     0.000000
    6    -1.000000    90.000000     0.000000     1.000000     0.000000     0.000000     0.000000     0.000000
    7     1.000000   180.000000     0.000000     0.000000     1.000000     0.000000     0.000000     0.000000
    8     1.000000   120.000000    -0.577350     0.577350     0.577350     0.000000     0.000000     0.000000
    9     1.000000   120.000000    -0.577350     0.577350    -0.577350     0.000000     0.000000     0.000000
   10    -1.000000    90.000000     0.000000     0.000000     1.000000     0.000000     0.000000     0.000000
   11    -1.000000    90.000000    -1.000000     0.000000     0.000000     0.000000     0.000000     0.000000
   12    -1.000000   180.000000     0.707107     0.000000     0.707107     0.000000     0.000000     0.000000
   13     1.000000   120.000000     0.577350    -0.577350     0.577350     0.000000     0.000000     0.000000
   14     1.000000   120.000000    -0.577350    -0.577350     0.577350     0.000000     0.000000     0.000000
   15     1.000000   180.000000     1.000000     0.000000     0.000000     0.000000     0.000000     0.000000
   16    -1.000000    90.000000     0.000000    -1.000000     0.000000     0.000000     0.000000     0.000000
   17    -1.000000   180.000000     0.707107     0.707107     0.000000     0.000000     0.000000     0.000000
   18    -1.000000    90.000000     1.000000     0.000000     0.000000     0.000000     0.000000     0.000000
   19     1.000000   120.000000     0.577350    -0.577350    -0.577350     0.000000     0.000000     0.000000
   20     1.000000   180.000000     0.000000     1.000000     0.000000     0.000000     0.000000     0.000000
   21     1.000000   120.000000     0.577350     0.577350    -0.577350     0.000000     0.000000     0.000000
   22    -1.000000   180.000000     0.000000    -0.707107     0.707107     0.000000     0.000000     0.000000
   23    -1.000000   180.000000     0.707107    -0.707107     0.000000     0.000000     0.000000     0.000000
   24    -1.000000   180.000000     0.707107     0.000000    -0.707107     0.000000     0.000000     0.000000
   25    -1.000000     0.000001     1.000000     0.000000     0.000000     0.499999     0.499999     0.499999
   26    -1.000000   120.000000    -0.577350    -0.577350    -0.577350     0.499999     0.499999     0.499999
   27    -1.000000   120.000000     0.577350     0.577350     0.577350     0.499999     0.499999     0.499999
   28     1.000000    90.000000     0.000000     0.000000    -1.000000     0.500001     0.499999     0.499999
   29     1.000000   180.000000     0.000000     0.707107     0.707107     0.500001     0.499999     0.499999
   30     1.000000    90.000000     0.000000     1.000000     0.000000     0.500001     0.499999     0.499999
   31    -1.000000   180.000000     0.000000     0.000000     1.000000     0.499999     0.499999     0.500001
   32    -1.000000   120.000000    -0.577350     0.577350     0.577350     0.499999     0.499999     0.500001
   33    -1.000000   120.000000    -0.577350     0.577350    -0.577350     0.499999     0.499999     0.500001
   34     1.000000    90.000000     0.000000     0.000000     1.000000     0.499999     0.500001     0.499999
   35     1.000000    90.000000    -1.000000     0.000000     0.000000     0.499999     0.500001     0.499999
   36     1.000000   180.000000     0.707107     0.000000     0.707107     0.499999     0.500001     0.499999
   37    -1.000000   120.000000     0.577350    -0.577350     0.577350     0.500001     0.499999     0.499999
   38    -1.000000   120.000000    -0.577350    -0.577350     0.577350     0.500001     0.499999     0.499999
   39    -1.000000   180.000000     1.000000     0.000000     0.000000     0.500001     0.499999     0.499999
   40     1.000000    90.000000     0.000000    -1.000000     0.000000     0.499999     0.499999     0.500001
   41     1.000000   180.000000     0.707107     0.707107     0.000000     0.499999     0.499999     0.500001
   42     1.000000    90.000000     1.000000     0.000000     0.000000     0.499999     0.499999     0.500001
   43    -1.000000   120.000000     0.577350    -0.577350    -0.577350     0.499999     0.500001     0.499999
   44    -1.000000   180.000000     0.000000     1.000000     0.000000     0.499999     0.500001     0.499999
   45    -1.000000   120.000000     0.577350     0.577350    -0.577350     0.499999     0.500001     0.499999
   46     1.000000   180.000000     0.000000    -0.707107     0.707107     0.499999     0.499999     0.499999
   47     1.000000   180.000000     0.707107    -0.707107     0.000000     0.499999     0.499999     0.499999
   48     1.000000   180.000000     0.707107     0.000000    -0.707107     0.499999     0.499999     0.499999
 
 Subroutine IBZKPT returns following result:
 ===========================================
 
 Found     29 irreducible k-points:
 
 Following reciprocal coordinates:
            Coordinates               Weight
  0.000000  0.000000  0.000000      1.000000
  0.125000  0.000000  0.000000      8.000000
  0.250000  0.000000  0.000000      8.000000
  0.375000  0.000000  0.000000      8.000000
  0.500000  0.000000  0.000000      4.000000
  0.125000  0.125000  0.000000      6.000000
  0.250000  0.125000  0.000000     24.000000
  0.375000  0.125000  0.000000     24.000000
  0.500000  0.125000  0.000000     24.000000
 -0.375000  0.125000  0.000000     24.000000
 -0.250000  0.125000  0.000000     24.000000
 -0.125000  0.125000  0.000000     12.000000
  0.250000  0.250000  0.000000      6.000000
  0.375000  0.250000  0.000000     24.000000
  0.500000  0.250000  0.000000     24.000000
 -0.375000  0.250000  0.000000     24.000000
 -0.250000  0.250000  0.000000     12.000000
  0.375000  0.375000  0.000000      6.000000
  0.500000  0.375000  0.000000     24.000000
 -0.375000  0.375000  0.000000     12.000000
  0.500000  0.500000  0.000000      3.000000
  0.375000  0.250000  0.125000     24.000000
  0.500000  0.250000  0.125000     48.000000
 -0.375000  0.250000  0.125000     24.000000
  0.500000  0.375000  0.125000     24.000000
 -0.375000  0.375000  0.125000     48.000000
 -0.250000  0.375000  0.125000     24.000000
 -0.375000  0.500000  0.125000     12.000000
 -0.250000  0.500000  0.250000      6.000000
 
 Following cartesian coordinates:
            Coordinates               Weight
  0.000000  0.000000  0.000000      1.000000
 -0.013806  0.013806  0.013806      8.000000
 -0.027612  0.027612  0.027612      8.000000
 -0.041419  0.041419  0.041419      8.000000
 -0.055225  0.055225  0.055225      4.000000
  0.000000  0.000000  0.027612      6.000000
 -0.013806  0.013806  0.041419     24.000000
 -0.027612  0.027612  0.055225     24.000000
 -0.041419  0.041419  0.069031     24.000000
  0.055225 -0.055225 -0.027612     24.000000
  0.041419 -0.041419 -0.013806     24.000000
  0.027612 -0.027612  0.000000     12.000000
  0.000000  0.000000  0.055225      6.000000
 -0.013806  0.013806  0.069031     24.000000
 -0.027612  0.027612  0.082837     24.000000
  0.069031 -0.069031 -0.013806     24.000000
  0.055225 -0.055225  0.000000     12.000000
  0.000000  0.000000  0.082837      6.000000
 -0.013806  0.013806  0.096644     24.000000
  0.082837 -0.082837  0.000000     12.000000
  0.000000  0.000000  0.110450      3.000000
  0.000000  0.027612  0.055225     24.000000
 -0.013806  0.041419  0.069031     48.000000
  0.082837 -0.055225 -0.027612     24.000000
 -0.000000  0.027612  0.082837     24.000000
  0.096644 -0.069031 -0.013806     48.000000
  0.082837 -0.055225 -0.000000     24.000000
  0.110450 -0.082837  0.000000     12.000000
  0.110450 -0.055225  0.000000      6.000000
 


--------------------------------------------------------------------------------------------------------




 Dimension of arrays:
   k-points           NKPTS =     29   k-points in BZ     NKDIM =     29   number of bands    NBANDS=     20
   number of dos      NEDOS =    301   number of ions     NIONS =      4
   non local maximal  LDIM  =      5   non local SUM 2l+1 LMDIM =     13
   total plane-waves  NPLWV = 110592
   max r-space proj   IRMAX =      1   max aug-charges    IRDMAX=  33274
   dimension x,y,z NGX =    48 NGY =   48 NGZ =   48
   dimension x,y,z NGXF=    96 NGYF=   96 NGZF=   96
   support grid    NGXF=    96 NGYF=   96 NGZF=   96
   ions per type =               1   2   1
   NGX,Y,Z   is equivalent  to a cutoff of  12.46, 12.46, 12.46 a.u.
   NGXF,Y,Z  is equivalent  to a cutoff of  24.93, 24.93, 24.93 a.u.

 SYSTEM =  unknown system                          
 POSCAR =  Cs Sb Rb                                

 Startparameter for this run:
   NWRITE =      2    write-flag & timer
   PREC   = acc       normal or accurate (medium, high low for compatibility)
   ISTART =      0    job   : 0-new  1-cont  2-samecut
   ICHARG =      2    charge: 1-file 2-atom 10-const
   ISPIN  =      1    spin polarized calculation?
   LNONCOLLINEAR =      F non collinear calculations
   LSORBIT =      F    spin-orbit coupling
   INIWAV =      1    electr: 0-lowe 1-rand  2-diag
   LASPH  =      F    aspherical Exc in radial PAW
   METAGGA=      F    non-selfconsistent MetaGGA calc.

 Electronic Relaxation 1
   ENCUT  =  520.0 eV  38.22 Ry    6.18 a.u.  11.90 11.90 11.90*2*pi/ulx,y,z
   ENINI  =  520.0     initial cutoff
   ENAUG  =  423.9 eV  augmentation charge cutoff
   NELM   =    150;   NELMIN=  5; NELMDL= -5     # of ELM steps 
   EDIFF  = 0.1E-07   stopping-criterion for ELM
   LREAL  =      F    real-space projection
   NLSPLINE    = F    spline interpolate recip. space projectors
   LCOMPAT=      F    compatible to vasp.4.4
   GGA_COMPAT  = T    GGA compatible to vasp.4.4-vasp.4.6
   LMAXPAW     = -100 max onsite density
   LMAXMIX     =    2 max onsite mixed and CHGCAR
   VOSKOWN=      0    Vosko Wilk Nusair interpolation
   ROPT   =    0.00000   0.00000   0.00000
 Ionic relaxation
   EDIFFG = 0.1E-06   stopping-criterion for IOM
   NSW    =      0    number of steps for IOM
   NBLOCK =      1;   KBLOCK =      1    inner block; outer block 
   IBRION =     -1    ionic relax: 0-MD 1-quasi-New 2-CG
   NFREE  =      0    steps in history (QN), initial steepest desc. (CG)
   ISIF   =      3    stress and relaxation
   IWAVPR =     10    prediction:  0-non 1-charg 2-wave 3-comb
   ISYM   =      2    0-nonsym 1-usesym 2-fastsym
   LCORR  =      T    Harris-Foulkes like correction to forces

   POTIM  = 0.5000    time-step for ionic-motion
   TEIN   =    0.0    initial temperature
   TEBEG  =    0.0;   TEEND  =   0.0 temperature during run
   SMASS  =  -3.00    Nose mass-parameter (am)
   estimated Nose-frequenzy (Omega)   =  0.10E-29 period in steps =****** mass=  -0.937E-27a.u.
   SCALEE = 1.0000    scale energy and forces
   NPACO  =    256;   APACO  = 16.0  distance and # of slots for P.C.
   PSTRESS=    0.0 pullay stress

  Mass of Ions in am
   POMASS = 132.90 85.47121.75
  Ionic Valenz
   ZVAL   =   9.00  9.00  5.00
  Atomic Wigner-Seitz radii
   RWIGS  =  -1.00 -1.00 -1.00
  virtual crystal weights 
   VCA    =   1.00  1.00  1.00
   NELECT =      32.0000    total number of electrons
   NUPDOWN=      -1.0000    fix difference up-down

 DOS related values:
   EMIN   =  10.00;   EMAX   =-10.00  energy-range for DOS
   EFERMI =   0.00
   ISMEAR =     0;   SIGMA  =   0.05  broadening in eV -4-tet -1-fermi 0-gaus

 Electronic relaxation 2 (details)
   IALGO  =     38    algorithm
   LDIAG  =      T    sub-space diagonalisation (order eigenvalues)
   LSUBROT=      F    optimize rotation matrix (better conditioning)
   TURBO    =      0    0=normal 1=particle mesh
   IRESTART =      0    0=no restart 2=restart with 2 vectors
   NREBOOT  =      0    no. of reboots
   NMIN     =      0    reboot dimension
   EREF     =   0.00    reference energy to select bands
   IMIX   =      4    mixing-type and parameters
     AMIX     =   0.40;   BMIX     =  1.00
     AMIX_MAG =   1.60;   BMIX_MAG =  1.00
     AMIN     =   0.10
     WC   =   100.;   INIMIX=   1;  MIXPRE=   1;  MAXMIX= -45

 Intra band minimization:
   WEIMIN = 0.0000     energy-eigenvalue tresh-hold
   EBREAK =  0.13E-09  absolut break condition
   DEPER  =   0.30     relativ break condition  

   TIME   =   0.40     timestep for ELM

  volume/ion in A,a.u.               =      46.39       313.03
  Fermi-wavevector in a.u.,A,eV,Ry     =   0.911262  1.722036 11.298267  0.830399
  Thomas-Fermi vector in A             =   2.035521
 
 Write flags
   LWAVE        =      F    write WAVECAR
   LDOWNSAMPLE  =      F    k-point downsampling of WAVECAR
   LCHARG       =      F    write CHGCAR
   LVTOT        =      F    write LOCPOT, total local potential
   LVHAR        =      F    write LOCPOT, Hartree potential only
   LELF         =      F    write electronic localiz. function (ELF)
   LORBIT       =      0    0 simple, 1 ext, 2 COOP (PROOUT), +10 PAW based schemes


 Dipole corrections
   LMONO  =      F    monopole corrections only (constant potential shift)
   LDIPOL =      F    correct potential (dipole corrections)
   IDIPOL =      0    1-x, 2-y, 3-z, 4-all directions 
   EPSILON=  1.0000000 bulk dielectric constant

 Exchange correlation treatment:
   GGA     =    PE    GGA type
   LEXCH   =     8    internal setting for exchange type
   VOSKOWN=      0    Vosko Wilk Nusair interpolation
   LHFCALC =     F    Hartree Fock is set to
   LHFONE  =     F    Hartree Fock one center treatment
   AEXX    =    0.0000 exact exchange contribution

 Linear response parameters
   LEPSILON=     F    determine dielectric tensor
   LRPA    =     F    only Hartree local field effects (RPA)
   LNABLA  =     F    use nabla operator in PAW spheres
   LVEL    =     F    velocity operator in full k-point grid
   LINTERFAST=   F  fast interpolation
   KINTER  =     0    interpolate to denser k-point grid
   CSHIFT  =0.1000    complex shift for real part using Kramers Kronig
   OMEGAMAX=  -1.0    maximum frequency
   DEG_THRESHOLD= 0.2000000E-02 threshold for treating states as degnerate
   RTIME   =   -0.100 relaxation time in fs
  (WPLASMAI=    0.000 imaginary part of plasma frequency in eV, 0.658/RTIME)
   DFIELD  = 0.0000000 0.0000000 0.0000000 field for delta impulse in time
 
 Orbital magnetization related:
   ORBITALMAG=     F  switch on orbital magnetization
   LCHIMAG   =     F  perturbation theory with respect to B field
   DQ        =  0.001000  dq finite difference perturbation B field
   LLRAUG    =     F  two centre corrections for induced B field



--------------------------------------------------------------------------------------------------------


 Static calculation
 charge density and potential will be updated during run
 non-spin polarized calculation
 Variant of blocked Davidson
 Davidson routine will perform the subspace rotation
 perform sub-space diagonalisation
    after iterative eigenvector-optimisation
 modified Broyden-mixing scheme, WC =      100.0
 initial mixing is a Kerker type mixing with AMIX =  0.4000 and BMIX =      1.0000
 Hartree-type preconditioning will be used
 using additional bands            4
 reciprocal scheme for non local part
 use partial core corrections
 calculate Harris-corrections to forces 
   (improved forces if not selfconsistent)
 use gradient corrections 
 use of overlap-Matrix (Vanderbilt PP)
 Gauss-broadening in eV      SIGMA  =   0.05


--------------------------------------------------------------------------------------------------------


  energy-cutoff  :      520.00
  volume of cell :      185.54
      direct lattice vectors                 reciprocal lattice vectors
     0.000000000  4.526939575  4.526939575    -0.110449895  0.110449895  0.110449895
     4.526939575  0.000000000  4.526939575     0.110449895 -0.110449895  0.110449895
     4.526939575  4.526939575  0.000000000     0.110449895  0.110449895 -0.110449895

  length of vectors
     6.402059343  6.402059343  6.402059343     0.191304830  0.191304830  0.191304830


 
 k-points in units of 2pi/SCALE and weight: KPOINTS                                 
   0.00000000  0.00000000  0.00000000       0.002
  -0.01380624  0.01380624  0.01380624       0.016
  -0.02761247  0.02761247  0.02761247       0.016
  -0.04141871  0.04141871  0.04141871       0.016
  -0.05522495  0.05522495  0.05522495       0.008
   0.00000000  0.00000000  0.02761247       0.012
  -0.01380624  0.01380624  0.04141871       0.047
  -0.02761247  0.02761247  0.05522495       0.047
  -0.04141871  0.04141871  0.06903118       0.047
   0.05522495 -0.05522495 -0.02761247       0.047
   0.04141871 -0.04141871 -0.01380624       0.047
   0.02761247 -0.02761247  0.00000000       0.023
   0.00000000  0.00000000  0.05522495       0.012
  -0.01380624  0.01380624  0.06903118       0.047
  -0.02761247  0.02761247  0.08283742       0.047
   0.06903118 -0.06903118 -0.01380624       0.047
   0.05522495 -0.05522495  0.00000000       0.023
   0.00000000  0.00000000  0.08283742       0.012
  -0.01380624  0.01380624  0.09664366       0.047
   0.08283742 -0.08283742  0.00000000       0.023
   0.00000000  0.00000000  0.11044989       0.006
   0.00000000  0.02761247  0.05522495       0.047
  -0.01380624  0.04141871  0.06903118       0.094
   0.08283742 -0.05522495 -0.02761247       0.047
  -0.00000000  0.02761247  0.08283742       0.047
   0.09664366 -0.06903118 -0.01380624       0.094
   0.08283742 -0.05522495 -0.00000000       0.047
   0.11044989 -0.08283742  0.00000000       0.023
   0.11044989 -0.05522495  0.00000000       0.012
 
 k-points in reciprocal lattice and weights: KPOINTS                                 
   0.00000000  0.00000000  0.00000000       0.002
   0.12500000  0.00000000  0.00000000       0.016
   0.25000000  0.00000000  0.00000000       0.016
   0.37500000  0.00000000  0.00000000       0.016
   0.50000000  0.00000000  0.00000000       0.008
   0.12500000  0.12500000  0.00000000       0.012
   0.25000000  0.12500000  0.00000000       0.047
   0.37500000  0.12500000  0.00000000       0.047
   0.50000000  0.12500000  0.00000000       0.047
  -0.37500000  0.12500000  0.00000000       0.047
  -0.25000000  0.12500000  0.00000000       0.047
  -0.12500000  0.12500000  0.00000000       0.023
   0.25000000  0.25000000  0.00000000       0.012
   0.37500000  0.25000000  0.00000000       0.047
   0.50000000  0.25000000  0.00000000       0.047
  -0.37500000  0.25000000  0.00000000       0.047
  -0.25000000  0.25000000  0.00000000       0.023
   0.37500000  0.37500000  0.00000000       0.012
   0.50000000  0.37500000  0.00000000       0.047
  -0.37500000  0.37500000  0.00000000       0.023
   0.50000000  0.50000000  0.00000000       0.006
   0.37500000  0.25000000  0.12500000       0.047
   0.50000000  0.25000000  0.12500000       0.094
  -0.37500000  0.25000000  0.12500000       0.047
   0.50000000  0.37500000  0.12500000       0.047
  -0.37500000  0.37500000  0.12500000       0.094
  -0.25000000  0.37500000  0.12500000       0.047
  -0.37500000  0.50000000  0.12500000       0.023
  -0.25000000  0.50000000  0.25000000       0.012
 
 position of ions in fractional coordinates (direct lattice) 
   0.24999934  0.24999934  0.24999934
   0.00000000  0.00000000  0.00000000
   0.49999978  0.49999978  0.49999978
   0.75000022  0.75000022  0.75000022
 
 position of ions in cartesian coordinates  (Angst):
   2.26346377  2.26346377  2.26346377
   0.00000000  0.00000000  0.00000000
   4.52693757  4.52693757  4.52693757
   6.79041137  6.79041137  6.79041137
 


--------------------------------------------------------------------------------------------------------


 k-point  1 :   0.0000 0.0000 0.0000  plane waves:    5029
 k-point  2 :   0.1250 0.0000 0.0000  plane waves:    4987
 k-point  3 :   0.2500 0.0000 0.0000  plane waves:    4975
 k-point  4 :   0.3750 0.0000 0.0000  plane waves:    4979
 k-point  5 :   0.5000 0.0000 0.0000  plane waves:    4988
 k-point  6 :   0.1250 0.1250 0.0000  plane waves:    4981
 k-point  7 :   0.2500 0.1250 0.0000  plane waves:    4962
 k-point  8 :   0.3750 0.1250 0.0000  plane waves:    5005
 k-point  9 :   0.5000 0.1250 0.0000  plane waves:    4995
 k-point 10 :  -0.3750 0.1250 0.0000  plane waves:    5004
 k-point 11 :  -0.2500 0.1250 0.0000  plane waves:    4987
 k-point 12 :  -0.1250 0.1250 0.0000  plane waves:    4986
 k-point 13 :   0.2500 0.2500 0.0000  plane waves:    4985
 k-point 14 :   0.3750 0.2500 0.0000  plane waves:    4992
 k-point 15 :   0.5000 0.2500 0.0000  plane waves:    5004
 k-point 16 :  -0.3750 0.2500 0.0000  plane waves:    5014
 k-point 17 :  -0.2500 0.2500 0.0000  plane waves:    4992
 k-point 18 :   0.3750 0.3750 0.0000  plane waves:    4997
 k-point 19 :   0.5000 0.3750 0.0000  plane waves:    4993
 k-point 20 :  -0.3750 0.3750 0.0000  plane waves:    5010
 k-point 21 :   0.5000 0.5000 0.0000  plane waves:    4992
 k-point 22 :   0.3750 0.2500 0.1250  plane waves:    4987
 k-point 23 :   0.5000 0.2500 0.1250  plane waves:    4997
 k-point 24 :  -0.3750 0.2500 0.1250  plane waves:    5002
 k-point 25 :   0.5000 0.3750 0.1250  plane waves:    4985
 k-point 26 :  -0.3750 0.3750 0.1250  plane waves:    5006
 k-point 27 :  -0.2500 0.3750 0.1250  plane waves:    4996
 k-point 28 :  -0.3750 0.5000 0.1250  plane waves:    5002
 k-point 29 :  -0.2500 0.5000 0.2500  plane waves:    5044

 maximum and minimum number of plane-waves per node :       732      699

 maximum number of plane-waves:      5044
 maximum index in each direction: 
   IXMAX=   12   IYMAX=   11   IZMAX=   11
   IXMIN=  -12   IYMIN=  -12   IZMIN=  -12


 parallel 3D FFT for wavefunctions:
    minimum data exchange during FFTs selected (reduces bandwidth)
 parallel 3D FFT for charge:
    minimum data exchange during FFTs selected (reduces bandwidth)


 total amount of memory used by VASP MPI-rank0    57350. kBytes
=======================================================================

   base      :      30000. kBytes
   nonl-proj :       6597. kBytes
   fftplans  :       4869. kBytes
   grid      :       9037. kBytes
   one-center:          8. kBytes
   wavefun   :       6839. kBytes
 
     INWAV:  cpu time    0.0000: real time    0.0000
 Broyden mixing: mesh for mixing (old mesh)
   NGX = 23   NGY = 23   NGZ = 23
  (NGX  = 96   NGY  = 96   NGZ  = 96)
  gives a total of  12167 points

 initial charge density was supplied:
 charge density of overlapping atoms calculated
 number of electron      32.0000000 magnetization 
 keeping initial charge density in first step


--------------------------------------------------------------------------------------------------------


 Maximum index for augmentation-charges         4610 (set IRDMAX)


--------------------------------------------------------------------------------------------------------


 First call to EWALD:  gamma=   0.311
 Maximum number of real-space cells 3x 3x 3
 Maximum number of reciprocal cells 3x 3x 3

    FEWALD:  cpu time    0.0016: real time    0.0016


--------------------------------------- Iteration      1(   1)  ---------------------------------------


    POTLOK:  cpu time    0.0797: real time    0.0827
    SETDIJ:  cpu time    0.0055: real time    0.0056
     EDDAV:  cpu time    0.3803: real time    0.3804
       DOS:  cpu time    0.0006: real time    0.0006
    --------------------------------------------
      LOOP:  cpu time    0.4661: real time    0.4693

 eigenvalue-minimisations  :  1160
 total energy-change (2. order) : 0.2245747E+03  (-0.1287924E+04)
 number of electron      32.0000000 magnetization 
 augmentation part       32.0000000 magnetization 

 Free energy of the ion-electron system (eV)
  ---------------------------------------------------
  alpha Z        PSCENC =        92.28858994
  Ewald energy   TEWEN  =     -1516.92148236
  -Hartree energ DENC   =      -400.59725681
  -exchange      EXHF   =         0.00000000
  -V(xc)+E(xc)   XCENC  =        22.19501211
  PAW double counting   =      1598.61849123    -1528.63182258
  entropy T*S    EENTRO =        -0.00446883
  eigenvalues    EBANDS =       -73.01093600
  atomic energy  EATOM  =      2030.63862089
  Solvation  Ediel_sol  =         0.00000000
  ---------------------------------------------------
  free energy    TOTEN  =       224.57474760 eV

  energy without entropy =      224.57921643  energy(sigma->0) =      224.57698201


--------------------------------------------------------------------------------------------------------




--------------------------------------- Iteration      1(   2)  ---------------------------------------


     EDDAV:  cpu time    0.4169: real time    0.4190
       DOS:  cpu time    0.0002: real time    0.0002
    --------------------------------------------
      LOOP:  cpu time    0.4172: real time    0.4192

 eigenvalue-minimisations  :  1548
 total energy-change (2. order) :-0.2137083E+03  (-0.2090986E+03)
 number of electron      32.0000000 magnetization 
 augmentation part       32.0000000 magnetization 

 Free energy of the ion-electron system (eV)
  ---------------------------------------------------
  alpha Z        PSCENC =        92.28858994
  Ewald energy   TEWEN  =     -1516.92148236
  -Hartree energ DENC   =      -400.59725681
  -exchange      EXHF   =         0.00000000
  -V(xc)+E(xc)   XCENC  =        22.19501211
  PAW double counting   =      1598.61849123    -1528.63182258
  entropy T*S    EENTRO =        -0.00000000
  eigenvalues    EBANDS =      -286.72369109
  atomic energy  EATOM  =      2030.63862089
  Solvation  Ediel_sol  =         0.00000000
  ---------------------------------------------------
  free energy    TOTEN  =        10.86646134 eV

  energy without entropy =       10.86646134  energy(sigma->0) =       10.86646134


--------------------------------------------------------------------------------------------------------




--------------------------------------- Iteration      1(   3)  ---------------------------------------


     EDDAV:  cpu time    0.4847: real time    0.4854
       DOS:  cpu time    0.0003: real time    0.0003
    --------------------------------------------
      LOOP:  cpu time    0.4850: real time    0.4857

 eigenvalue-minimisations  :  1776
 total energy-change (2. order) :-0.1989129E+02  (-0.1985238E+02)
 number of electron      32.0000000 magnetization 
 augmentation part       32.0000000 magnetization 

 Free energy of the ion-electron system (eV)
  ---------------------------------------------------
  alpha Z        PSCENC =        92.28858994
  Ewald energy   TEWEN  =     -1516.92148236
  -Hartree energ DENC   =      -400.59725681
  -exchange      EXHF   =         0.00000000
  -V(xc)+E(xc)   XCENC  =        22.19501211
  PAW double counting   =      1598.61849123    -1528.63182258
  entropy T*S    EENTRO =        -0.00000000
  eigenvalues    EBANDS =      -306.61497627
  atomic energy  EATOM  =      2030.63862089
  Solvation  Ediel_sol  =         0.00000000
  ---------------------------------------------------
  free energy    TOTEN  =        -9.02482384 eV

  energy without entropy =       -9.02482384  energy(sigma->0) =       -9.02482384


--------------------------------------------------------------------------------------------------------




--------------------------------------- Iteration      1(   4)  ---------------------------------------


     EDDAV:  cpu time    0.4656: real time    0.4668
       DOS:  cpu time    0.0003: real time    0.0002
    --------------------------------------------
      LOOP:  cpu time    0.4659: real time    0.4670

 eigenvalue-minimisations  :  1640
 total energy-change (2. order) :-0.4529442E+00  (-0.4515726E+00)
 number of electron      32.0000000 magnetization 
 augmentation part       32.0000000 magnetization 

 Free energy of the ion-electron system (eV)
  ---------------------------------------------------
  alpha Z        PSCENC =        92.28858994
  Ewald energy   TEWEN  =     -1516.92148236
  -Hartree energ DENC   =      -400.59725681
  -exchange      EXHF   =         0.00000000
  -V(xc)+E(xc)   XCENC  =        22.19501211
  PAW double counting   =      1598.61849123    -1528.63182258
  entropy T*S    EENTRO =        -0.00000000
  eigenvalues    EBANDS =      -307.06792043
  atomic energy  EATOM  =      2030.63862089
  Solvation  Ediel_sol  =         0.00000000
  ---------------------------------------------------
  free energy    TOTEN  =        -9.47776801 eV

  energy without entropy =       -9.47776801  energy(sigma->0) =       -9.47776801


--------------------------------------------------------------------------------------------------------




--------------------------------------- Iteration      1(   5)  ---------------------------------------


     EDDAV:  cpu time    0.4338: real time    0.4340
       DOS:  cpu time    0.0003: real time    0.0003
    CHARGE:  cpu time    0.0519: real time    0.0519
    MIXING:  cpu time    0.0049: real time    0.0049
    --------------------------------------------
      LOOP:  cpu time    0.4909: real time    0.4912

 eigenvalue-minimisations  :  1540
 total energy-change (2. order) :-0.1199176E-01  (-0.1199033E-01)
 number of electron      32.0000002 magnetization 
 augmentation part       -3.1149970 magnetization 

 Broyden mixing:
  rms(total) = 0.42632E+00    rms(broyden)= 0.42632E+00
  rms(prec ) = 0.11938E+01
  weight for this iteration     100.00

 Free energy of the ion-electron system (eV)
  ---------------------------------------------------
  alpha Z        PSCENC =        92.28858994
  Ewald energy   TEWEN  =     -1516.92148236
  -Hartree energ DENC   =      -400.59725681
  -exchange      EXHF   =         0.00000000
  -V(xc)+E(xc)   XCENC  =        22.19501211
  PAW double counting   =      1598.61849123    -1528.63182258
  entropy T*S    EENTRO =        -0.00000000
  eigenvalues    EBANDS =      -307.07991219
  atomic energy  EATOM  =      2030.63862089
  Solvation  Ediel_sol  =         0.00000000
  ---------------------------------------------------
  free energy    TOTEN  =        -9.48975977 eV

  energy without entropy =       -9.48975977  energy(sigma->0) =       -9.48975977


--------------------------------------------------------------------------------------------------------




--------------------------------------- Iteration      1(   6)  ---------------------------------------


    POTLOK:  cpu time    0.0835: real time    0.0838
    SETDIJ:  cpu time    0.0061: real time    0.0061
     EDDAV:  cpu time    0.3971: real time    0.3971
       DOS:  cpu time    0.0003: real time    0.0003
    CHARGE:  cpu time    0.0506: real time    0.0506
    MIXING:  cpu time    0.0052: real time    0.0052
    --------------------------------------------
      LOOP:  cpu time    0.5427: real time    0.5431

 eigenvalue-minimisations  :  1336
 total energy-change (2. order) : 0.1099276E+01  (-0.2083359E+00)
 number of electron      32.0000002 magnetization 
 augmentation part       -3.0991961 magnetization 

 Broyden mixing:
  rms(total) = 0.30111E+00    rms(broyden)= 0.30111E+00
  rms(prec ) = 0.55786E+00
  weight for this iteration     100.00

 eigenvalues of (default mixing * dielectric matrix)
  average eigenvalue GAMMA=   1.5564
  1.5564

 Free energy of the ion-electron system (eV)
  ---------------------------------------------------
  alpha Z        PSCENC =        92.28858994
  Ewald energy   TEWEN  =     -1516.92148236
  -Hartree energ DENC   =      -394.60046020
  -exchange      EXHF   =         0.00000000
  -V(xc)+E(xc)   XCENC  =        22.22093553
  PAW double counting   =      1628.11988405    -1558.72300905
  entropy T*S    EENTRO =        -0.00000000
  eigenvalues    EBANDS =      -311.41356267
  atomic energy  EATOM  =      2030.63862089
  Solvation  Ediel_sol  =         0.00000000
  ---------------------------------------------------
  free energy    TOTEN  =        -8.39048387 eV

  energy without entropy =       -8.39048387  energy(sigma->0) =       -8.39048387


--------------------------------------------------------------------------------------------------------




--------------------------------------- Iteration      1(   7)  ---------------------------------------


    POTLOK:  cpu time    0.0822: real time    0.0825
    SETDIJ:  cpu time    0.0050: real time    0.0050
     EDDAV:  cpu time    0.4245: real time    0.4248
       DOS:  cpu time    0.0003: real time    0.0003
    CHARGE:  cpu time    0.0508: real time    0.0508
    MIXING:  cpu time    0.0043: real time    0.0043
    --------------------------------------------
      LOOP:  cpu time    0.5671: real time    0.5677

 eigenvalue-minimisations  :  1452
 total energy-change (2. order) : 0.1254287E+00  (-0.1232167E+00)
 number of electron      32.0000002 magnetization 
 augmentation part       -3.1181293 magnetization 

 Broyden mixing:
  rms(total) = 0.16753E+00    rms(broyden)= 0.16753E+00
  rms(prec ) = 0.23251E+00
  weight for this iteration     100.00

 eigenvalues of (default mixing * dielectric matrix)
  average eigenvalue GAMMA=   1.9644
  1.9644  1.9644

 Free energy of the ion-electron system (eV)
  ---------------------------------------------------
  alpha Z        PSCENC =        92.28858994
  Ewald energy   TEWEN  =     -1516.92148236
  -Hartree energ DENC   =      -389.94448427
  -exchange      EXHF   =         0.00000000
  -V(xc)+E(xc)   XCENC  =        22.24006693
  PAW double counting   =      1687.72044791    -1618.68273237
  entropy T*S    EENTRO =        -0.00000000
  eigenvalues    EBANDS =      -315.60408180
  atomic energy  EATOM  =      2030.63862089
  Solvation  Ediel_sol  =         0.00000000
  ---------------------------------------------------
  free energy    TOTEN  =        -8.26505513 eV

  energy without entropy =       -8.26505513  energy(sigma->0) =       -8.26505513


--------------------------------------------------------------------------------------------------------




--------------------------------------- Iteration      1(   8)  ---------------------------------------


    POTLOK:  cpu time    0.0836: real time    0.0839
    SETDIJ:  cpu time    0.0055: real time    0.0055
     EDDAV:  cpu time    0.3965: real time    0.3965
       DOS:  cpu time    0.0003: real time    0.0003
    CHARGE:  cpu time    0.0493: real time    0.0493
    MIXING:  cpu time    0.0041: real time    0.0041
    --------------------------------------------
      LOOP:  cpu time    0.5391: real time    0.5395

 eigenvalue-minimisations  :  1288
 total energy-change (2. order) :-0.1921991E-01  (-0.2822305E-01)
 number of electron      32.0000002 magnetization 
 augmentation part       -3.1487474 magnetization 

 Broyden mixing:
  rms(total) = 0.40550E-01    rms(broyden)= 0.40550E-01
  rms(prec ) = 0.14427E+00
  weight for this iteration     100.00

 eigenvalues of (default mixing * dielectric matrix)
  average eigenvalue GAMMA=   1.6773
  2.5048  1.2635  1.2635

 Free energy of the ion-electron system (eV)
  ---------------------------------------------------
  alpha Z        PSCENC =        92.28858994
  Ewald energy   TEWEN  =     -1516.92148236
  -Hartree energ DENC   =      -389.75668282
  -exchange      EXHF   =         0.00000000
  -V(xc)+E(xc)   XCENC  =        22.29034155
  PAW double counting   =      1754.11353744    -1684.89866170
  entropy T*S    EENTRO =        -0.00000000
  eigenvalues    EBANDS =      -316.03853797
  atomic energy  EATOM  =      2030.63862089
  Solvation  Ediel_sol  =         0.00000000
  ---------------------------------------------------
  free energy    TOTEN  =        -8.28427503 eV

  energy without entropy =       -8.28427503  energy(sigma->0) =       -8.28427503


--------------------------------------------------------------------------------------------------------




--------------------------------------- Iteration      1(   9)  ---------------------------------------


    POTLOK:  cpu time    0.0819: real time    0.0823
    SETDIJ:  cpu time    0.0052: real time    0.0051
     EDDAV:  cpu time    0.4052: real time    0.4054
       DOS:  cpu time    0.0003: real time    0.0003
    CHARGE:  cpu time    0.0490: real time    0.0490
    MIXING:  cpu time    0.0040: real time    0.0040
    --------------------------------------------
      LOOP:  cpu time    0.5455: real time    0.5460

 eigenvalue-minimisations  :  1348
 total energy-change (2. order) : 0.1709308E-01  (-0.1181415E-01)
 number of electron      32.0000002 magnetization 
 augmentation part       -3.1477601 magnetization 

 Broyden mixing:
  rms(total) = 0.29786E-01    rms(broyden)= 0.29786E-01
  rms(prec ) = 0.40347E-01
  weight for this iteration     100.00

 eigenvalues of (default mixing * dielectric matrix)
  average eigenvalue GAMMA=   1.3945
  2.5975  1.2683  1.2683  0.4439

 Free energy of the ion-electron system (eV)
  ---------------------------------------------------
  alpha Z        PSCENC =        92.28858994
  Ewald energy   TEWEN  =     -1516.92148236
  -Hartree energ DENC   =      -388.75702434
  -exchange      EXHF   =         0.00000000
  -V(xc)+E(xc)   XCENC  =        22.32126160
  PAW double counting   =      1762.75943874    -1693.62957853
  entropy T*S    EENTRO =        -0.00000000
  eigenvalues    EBANDS =      -316.96700789
  atomic energy  EATOM  =      2030.63862089
  Solvation  Ediel_sol  =         0.00000000
  ---------------------------------------------------
  free energy    TOTEN  =        -8.26718195 eV

  energy without entropy =       -8.26718195  energy(sigma->0) =       -8.26718195


--------------------------------------------------------------------------------------------------------




--------------------------------------- Iteration      1(  10)  ---------------------------------------


    POTLOK:  cpu time    0.0817: real time    0.0821
    SETDIJ:  cpu time    0.0054: real time    0.0054
     EDDAV:  cpu time    0.4250: real time    0.4250
       DOS:  cpu time    0.0003: real time    0.0003
    CHARGE:  cpu time    0.0493: real time    0.0494
    MIXING:  cpu time    0.0042: real time    0.0042
    --------------------------------------------
      LOOP:  cpu time    0.5659: real time    0.5663

 eigenvalue-minimisations  :  1460
 total energy-change (2. order) :-0.3103734E-03  (-0.9539426E-03)
 number of electron      32.0000002 magnetization 
 augmentation part       -3.1538634 magnetization 

 Broyden mixing:
  rms(total) = 0.11722E-01    rms(broyden)= 0.11722E-01
  rms(prec ) = 0.16828E-01
  weight for this iteration     100.00

 eigenvalues of (default mixing * dielectric matrix)
  average eigenvalue GAMMA=   1.7070
  3.2420  1.9778  1.5873  0.8641  0.8641

 Free energy of the ion-electron system (eV)
  ---------------------------------------------------
  alpha Z        PSCENC =        92.28858994
  Ewald energy   TEWEN  =     -1516.92148236
  -Hartree energ DENC   =      -389.01945101
  -exchange      EXHF   =         0.00000000
  -V(xc)+E(xc)   XCENC  =        22.32031227
  PAW double counting   =      1754.16055893    -1684.99150223
  entropy T*S    EENTRO =        -0.00000000
  eigenvalues    EBANDS =      -316.74313875
  atomic energy  EATOM  =      2030.63862089
  Solvation  Ediel_sol  =         0.00000000
  ---------------------------------------------------
  free energy    TOTEN  =        -8.26749232 eV

  energy without entropy =       -8.26749232  energy(sigma->0) =       -8.26749232


--------------------------------------------------------------------------------------------------------




--------------------------------------- Iteration      1(  11)  ---------------------------------------


    POTLOK:  cpu time    0.0818: real time    0.0821
    SETDIJ:  cpu time    0.0050: real time    0.0050
     EDDAV:  cpu time    0.4031: real time    0.4034
       DOS:  cpu time    0.0003: real time    0.0003
    CHARGE:  cpu time    0.0490: real time    0.0490
    MIXING:  cpu time    0.0043: real time    0.0043
    --------------------------------------------
      LOOP:  cpu time    0.5434: real time    0.5441

 eigenvalue-minimisations  :  1356
 total energy-change (2. order) :-0.3194962E-03  (-0.7917864E-04)
 number of electron      32.0000002 magnetization 
 augmentation part       -3.1533144 magnetization 

 Broyden mixing:
  rms(total) = 0.27469E-02    rms(broyden)= 0.27469E-02
  rms(prec ) = 0.57229E-02
  weight for this iteration     100.00

 eigenvalues of (default mixing * dielectric matrix)
  average eigenvalue GAMMA=   1.6061
  2.8872  2.3823  1.3252  1.3252  0.8584  0.8584

 Free energy of the ion-electron system (eV)
  ---------------------------------------------------
  alpha Z        PSCENC =        92.28858994
  Ewald energy   TEWEN  =     -1516.92148236
  -Hartree energ DENC   =      -389.17623422
  -exchange      EXHF   =         0.00000000
  -V(xc)+E(xc)   XCENC  =        22.33434290
  PAW double counting   =      1752.44881542    -1683.21650958
  entropy T*S    EENTRO =        -0.00000000
  eigenvalues    EBANDS =      -316.66395480
  atomic energy  EATOM  =      2030.63862089
  Solvation  Ediel_sol  =         0.00000000
  ---------------------------------------------------
  free energy    TOTEN  =        -8.26781182 eV

  energy without entropy =       -8.26781182  energy(sigma->0) =       -8.26781182


--------------------------------------------------------------------------------------------------------




--------------------------------------- Iteration      1(  12)  ---------------------------------------


    POTLOK:  cpu time    0.0818: real time    0.0822
    SETDIJ:  cpu time    0.0053: real time    0.0053
     EDDAV:  cpu time    0.4707: real time    0.4707
       DOS:  cpu time    0.0003: real time    0.0003
    CHARGE:  cpu time    0.0493: real time    0.0493
    MIXING:  cpu time    0.0042: real time    0.0042
    --------------------------------------------
      LOOP:  cpu time    0.6116: real time    0.6120

 eigenvalue-minimisations  :  1672
 total energy-change (2. order) : 0.1227693E-04  (-0.2861728E-04)
 number of electron      32.0000002 magnetization 
 augmentation part       -3.1533474 magnetization 

 Broyden mixing:
  rms(total) = 0.13009E-02    rms(broyden)= 0.13009E-02
  rms(prec ) = 0.34784E-02
  weight for this iteration     100.00

 eigenvalues of (default mixing * dielectric matrix)
  average eigenvalue GAMMA=   1.6821
  2.8588  2.8588  1.8456  1.3104  1.0360  1.0360  0.8293

 Free energy of the ion-electron system (eV)
  ---------------------------------------------------
  alpha Z        PSCENC =        92.28858994
  Ewald energy   TEWEN  =     -1516.92148236
  -Hartree energ DENC   =      -389.18619967
  -exchange      EXHF   =         0.00000000
  -V(xc)+E(xc)   XCENC  =        22.33168416
  PAW double counting   =      1753.25085050    -1684.01492473
  entropy T*S    EENTRO =        -0.00000000
  eigenvalues    EBANDS =      -316.65493827
  atomic energy  EATOM  =      2030.63862089
  Solvation  Ediel_sol  =         0.00000000
  ---------------------------------------------------
  free energy    TOTEN  =        -8.26779954 eV

  energy without entropy =       -8.26779954  energy(sigma->0) =       -8.26779954


--------------------------------------------------------------------------------------------------------




--------------------------------------- Iteration      1(  13)  ---------------------------------------


    POTLOK:  cpu time    0.0817: real time    0.0820
    SETDIJ:  cpu time    0.0054: real time    0.0054
     EDDAV:  cpu time    0.4190: real time    0.4196
       DOS:  cpu time    0.0003: real time    0.0003
    CHARGE:  cpu time    0.0504: real time    0.0504
    MIXING:  cpu time    0.0046: real time    0.0046
    --------------------------------------------
      LOOP:  cpu time    0.5613: real time    0.5623

 eigenvalue-minimisations  :  1364
 total energy-change (2. order) : 0.3704413E-05  (-0.5277511E-05)
 number of electron      32.0000002 magnetization 
 augmentation part       -3.1533819 magnetization 

 Broyden mixing:
  rms(total) = 0.19433E-03    rms(broyden)= 0.19432E-03
  rms(prec ) = 0.47818E-03
  weight for this iteration     100.00

 eigenvalues of (default mixing * dielectric matrix)
  average eigenvalue GAMMA=   1.6226
  3.1459  2.5951  1.8965  1.2196  1.2196  1.0231  1.0231  0.8582

 Free energy of the ion-electron system (eV)
  ---------------------------------------------------
  alpha Z        PSCENC =        92.28858994
  Ewald energy   TEWEN  =     -1516.92148236
  -Hartree energ DENC   =      -389.16351439
  -exchange      EXHF   =         0.00000000
  -V(xc)+E(xc)   XCENC  =        22.33124146
  PAW double counting   =      1753.35169278    -1684.11380339
  entropy T*S    EENTRO =        -0.00000000
  eigenvalues    EBANDS =      -316.67914077
  atomic energy  EATOM  =      2030.63862089
  Solvation  Ediel_sol  =         0.00000000
  ---------------------------------------------------
  free energy    TOTEN  =        -8.26779584 eV

  energy without entropy =       -8.26779584  energy(sigma->0) =       -8.26779584


--------------------------------------------------------------------------------------------------------




--------------------------------------- Iteration      1(  14)  ---------------------------------------


    POTLOK:  cpu time    0.0830: real time    0.0840
    SETDIJ:  cpu time    0.0056: real time    0.0056
     EDDAV:  cpu time    0.5089: real time    0.5090
       DOS:  cpu time    0.0003: real time    0.0003
    CHARGE:  cpu time    0.0494: real time    0.0495
    MIXING:  cpu time    0.0044: real time    0.0044
    --------------------------------------------
      LOOP:  cpu time    0.6516: real time    0.6527

 eigenvalue-minimisations  :  1824
 total energy-change (2. order) :-0.5649356E-06  (-0.4719412E-06)
 number of electron      32.0000002 magnetization 
 augmentation part       -3.1534721 magnetization 

 Broyden mixing:
  rms(total) = 0.36000E-03    rms(broyden)= 0.36000E-03
  rms(prec ) = 0.40024E-03
  weight for this iteration     100.00

 eigenvalues of (default mixing * dielectric matrix)
  average eigenvalue GAMMA=   1.7069
  2.9359  2.9359  2.4392  1.9782  1.0223  1.0223  1.1582  1.0595  0.8102

 Free energy of the ion-electron system (eV)
  ---------------------------------------------------
  alpha Z        PSCENC =        92.28858994
  Ewald energy   TEWEN  =     -1516.92148236
  -Hartree energ DENC   =      -389.16233149
  -exchange      EXHF   =         0.00000000
  -V(xc)+E(xc)   XCENC  =        22.33143636
  PAW double counting   =      1753.34455244    -1684.10694569
  entropy T*S    EENTRO =        -0.00000000
  eigenvalues    EBANDS =      -316.68023648
  atomic energy  EATOM  =      2030.63862089
  Solvation  Ediel_sol  =         0.00000000
  ---------------------------------------------------
  free energy    TOTEN  =        -8.26779640 eV

  energy without entropy =       -8.26779640  energy(sigma->0) =       -8.26779640


--------------------------------------------------------------------------------------------------------




--------------------------------------- Iteration      1(  15)  ---------------------------------------


    POTLOK:  cpu time    0.0819: real time    0.0822
    SETDIJ:  cpu time    0.0125: real time    0.0125
     EDDAV:  cpu time    0.3895: real time    0.3895
       DOS:  cpu time    0.0003: real time    0.0003
    CHARGE:  cpu time    0.0492: real time    0.0493
    MIXING:  cpu time    0.0045: real time    0.0045
    --------------------------------------------
      LOOP:  cpu time    0.5379: real time    0.5384

 eigenvalue-minimisations  :  1332
 total energy-change (2. order) :-0.1523883E-06  (-0.9883593E-08)
 number of electron      32.0000002 magnetization 
 augmentation part       -3.1534768 magnetization 

 Broyden mixing:
  rms(total) = 0.13264E-03    rms(broyden)= 0.13264E-03
  rms(prec ) = 0.18794E-03
  weight for this iteration     100.00

 eigenvalues of (default mixing * dielectric matrix)
  average eigenvalue GAMMA=   1.6395
  2.9676  2.9676  2.1379  2.1379  1.2239  1.0456  1.0456  0.8545  1.0430  0.9718

 Free energy of the ion-electron system (eV)
  ---------------------------------------------------
  alpha Z        PSCENC =        92.28858994
  Ewald energy   TEWEN  =     -1516.92148236
  -Hartree energ DENC   =      -389.16389846
  -exchange      EXHF   =         0.00000000
  -V(xc)+E(xc)   XCENC  =        22.33158854
  PAW double counting   =      1753.46251291    -1684.22581535
  entropy T*S    EENTRO =        -0.00000000
  eigenvalues    EBANDS =      -316.67791268
  atomic energy  EATOM  =      2030.63862089
  Solvation  Ediel_sol  =         0.00000000
  ---------------------------------------------------
  free energy    TOTEN  =        -8.26779656 eV

  energy without entropy =       -8.26779656  energy(sigma->0) =       -8.26779656


--------------------------------------------------------------------------------------------------------




--------------------------------------- Iteration      1(  16)  ---------------------------------------


    POTLOK:  cpu time    0.0815: real time    0.0818
    SETDIJ:  cpu time    0.0054: real time    0.0054
     EDDAV:  cpu time    0.3787: real time    0.3787
       DOS:  cpu time    0.0003: real time    0.0003
    CHARGE:  cpu time    0.0490: real time    0.0490
    MIXING:  cpu time    0.0045: real time    0.0045
    --------------------------------------------
      LOOP:  cpu time    0.5193: real time    0.5197

 eigenvalue-minimisations  :  1188
 total energy-change (2. order) :-0.1960348E-07  (-0.3569857E-08)
 number of electron      32.0000002 magnetization 
 augmentation part       -3.1534785 magnetization 

 Broyden mixing:
  rms(total) = 0.88708E-04    rms(broyden)= 0.88708E-04
  rms(prec ) = 0.10266E-03
  weight for this iteration     100.00

 eigenvalues of (default mixing * dielectric matrix)
  average eigenvalue GAMMA=   1.7207
  3.3575  2.7219  2.7219  2.0510  2.0510  1.1118  1.1118  1.0251  1.0251  0.9360
  0.8151

 Free energy of the ion-electron system (eV)
  ---------------------------------------------------
  alpha Z        PSCENC =        92.28858994
  Ewald energy   TEWEN  =     -1516.92148236
  -Hartree energ DENC   =      -389.16477142
  -exchange      EXHF   =         0.00000000
  -V(xc)+E(xc)   XCENC  =        22.33162343
  PAW double counting   =      1753.50479668    -1684.26784520
  entropy T*S    EENTRO =        -0.00000000
  eigenvalues    EBANDS =      -316.67732854
  atomic energy  EATOM  =      2030.63862089
  Solvation  Ediel_sol  =         0.00000000
  ---------------------------------------------------
  free energy    TOTEN  =        -8.26779658 eV

  energy without entropy =       -8.26779658  energy(sigma->0) =       -8.26779658


--------------------------------------------------------------------------------------------------------




--------------------------------------- Iteration      1(  17)  ---------------------------------------


    POTLOK:  cpu time    0.0822: real time    0.0826
    SETDIJ:  cpu time    0.0051: real time    0.0050
     EDDAV:  cpu time    0.2899: real time    0.2899
       DOS:  cpu time    0.0003: real time    0.0003
    CHARGE:  cpu time    0.0490: real time    0.0490
    MIXING:  cpu time    0.0049: real time    0.0049
    --------------------------------------------
      LOOP:  cpu time    0.4314: real time    0.4318

 eigenvalue-minimisations  :   892
 total energy-change (2. order) :-0.5055063E-07  (-0.6665144E-09)
 number of electron      32.0000002 magnetization 
 augmentation part       -3.1534766 magnetization 

 Broyden mixing:
  rms(total) = 0.16984E-04    rms(broyden)= 0.16984E-04
  rms(prec ) = 0.34464E-04
  weight for this iteration     100.00

 eigenvalues of (default mixing * dielectric matrix)
  average eigenvalue GAMMA=   1.6948
  3.2639  2.9644  2.2690  2.2690  2.1849  1.3672  1.0986  1.0986  1.0217  1.0217
  0.8246  0.9540

 Free energy of the ion-electron system (eV)
  ---------------------------------------------------
  alpha Z        PSCENC =        92.28858994
  Ewald energy   TEWEN  =     -1516.92148236
  -Hartree energ DENC   =      -389.16538552
  -exchange      EXHF   =         0.00000000
  -V(xc)+E(xc)   XCENC  =        22.33167761
  PAW double counting   =      1753.57587315    -1684.33873843
  entropy T*S    EENTRO =        -0.00000000
  eigenvalues    EBANDS =      -316.67695190
  atomic energy  EATOM  =      2030.63862089
  Solvation  Ediel_sol  =         0.00000000
  ---------------------------------------------------
  free energy    TOTEN  =        -8.26779663 eV

  energy without entropy =       -8.26779663  energy(sigma->0) =       -8.26779663


--------------------------------------------------------------------------------------------------------




--------------------------------------- Iteration      1(  18)  ---------------------------------------


    POTLOK:  cpu time    0.0817: real time    0.0821
    SETDIJ:  cpu time    0.0050: real time    0.0050
     EDDAV:  cpu time    0.3068: real time    0.3070
       DOS:  cpu time    0.0003: real time    0.0003
    --------------------------------------------
      LOOP:  cpu time    0.3937: real time    0.3943

 eigenvalue-minimisations  :   932
 total energy-change (2. order) : 0.9852101E-09  (-0.5962768E-09)
 number of electron      32.0000002 magnetization 
 augmentation part       -3.1534766 magnetization 

 Free energy of the ion-electron system (eV)
  ---------------------------------------------------
  alpha Z        PSCENC =        92.28858994
  Ewald energy   TEWEN  =     -1516.92148236
  -Hartree energ DENC   =      -389.16563554
  -exchange      EXHF   =         0.00000000
  -V(xc)+E(xc)   XCENC  =        22.33167711
  PAW double counting   =      1753.58519273    -1684.34799983
  entropy T*S    EENTRO =        -0.00000000
  eigenvalues    EBANDS =      -316.67675957
  atomic energy  EATOM  =      2030.63862089
  Solvation  Ediel_sol  =         0.00000000
  ---------------------------------------------------
  free energy    TOTEN  =        -8.26779663 eV

  energy without entropy =       -8.26779663  energy(sigma->0) =       -8.26779663


--------------------------------------------------------------------------------------------------------




 average (electrostatic) potential at core
  the test charge radii are     1.1312  1.1097  1.1712
  (the norm of the test charge is              1.0000)
       1 -51.0685       2 -38.1374       3 -38.1374       4 -89.0228
 
 
 
 E-fermi :   2.1208     XC(G=0):  -7.5849     alpha+bet : -7.3764


 k-point     1 :       0.0000    0.0000    0.0000
  band No.  band energies     occupation 
      1     -25.8401      2.00000
      2     -25.8205      2.00000
      3     -21.3261      2.00000
      4     -10.0289      2.00000
      5     -10.0289      2.00000
      6     -10.0289      2.00000
      7      -9.9380      2.00000
      8      -9.9380      2.00000
      9      -9.9380      2.00000
     10      -8.1384      2.00000
     11      -8.1384      2.00000
     12      -8.1384      2.00000
     13      -5.3381      2.00000
     14       1.7258      2.00000
     15       1.7258      2.00000
     16       1.7258      2.00000
     17       2.4639      0.00000
     18       3.6943      0.00000
     19       3.6943      0.00000
     20       4.7516      0.00000

 k-point     2 :       0.1250    0.0000    0.0000
  band No.  band energies     occupation 
      1     -25.8392      2.00000
      2     -25.8212      2.00000
      3     -21.3264      2.00000
      4     -10.0358      2.00000
      5     -10.0278      2.00000
      6     -10.0278      2.00000
      7      -9.9422      2.00000
      8      -9.9422      2.00000
      9      -9.9339      2.00000
     10      -8.1440      2.00000
     11      -8.1345      2.00000
     12      -8.1345      2.00000
     13      -5.3103      2.00000
     14       1.4049      2.00000
     15       1.6805      2.00000
     16       1.6805      2.00000
     17       2.9645      0.00000
     18       3.8787      0.00000
     19       3.8787      0.00000
     20       4.5909      0.00000

 k-point     3 :       0.2500    0.0000    0.0000
  band No.  band energies     occupation 
      1     -25.8370      2.00000
      2     -25.8232      2.00000
      3     -21.3271      2.00000
      4     -10.0415      2.00000
      5     -10.0239      2.00000
      6     -10.0239      2.00000
      7      -9.9533      2.00000
      8      -9.9533      2.00000
      9      -9.9368      2.00000
     10      -8.1524      2.00000
     11      -8.1251      2.00000
     12      -8.1251      2.00000
     13      -5.2494      2.00000
     14       1.0672      2.00000
     15       1.5933      2.00000
     16       1.5933      2.00000
     17       3.7114      0.00000
     18       4.3515      0.00000
     19       4.3515      0.00000
     20       4.4283      0.00000

 k-point     4 :       0.3750    0.0000    0.0000
  band No.  band energies     occupation 
      1     -25.8336      2.00000
      2     -25.8262      2.00000
      3     -21.3279      2.00000
      4     -10.0340      2.00000
      5     -10.0177      2.00000
      6     -10.0177      2.00000
      7      -9.9667      2.00000
      8      -9.9667      2.00000
      9      -9.9551      2.00000
     10      -8.1549      2.00000
     11      -8.1157      2.00000
     12      -8.1157      2.00000
     13      -5.1963      2.00000
     14       0.8780      2.00000
     15       1.5276      2.00000
     16       1.5276      2.00000
     17       4.1062      0.00000
     18       4.7791      0.00000
     19       4.7792      0.00000
     20       4.8497      0.00000

 k-point     5 :       0.5000    0.0000    0.0000
  band No.  band energies     occupation 
      1     -25.8299      2.00000
      2     -25.8298      2.00000
      3     -21.3282      2.00000
      4     -10.0247      2.00000
      5     -10.0137      2.00000
      6     -10.0137      2.00000
      7      -9.9737      2.00000
      8      -9.9737      2.00000
      9      -9.9695      2.00000
     10      -8.1545      2.00000
     11      -8.1118      2.00000
     12      -8.1118      2.00000
     13      -5.1762      2.00000
     14       0.8154      2.00000
     15       1.5049      2.00000
     16       1.5049      2.00000
     17       4.4074      0.00000
     18       4.7914      0.00000
     19       4.8354      0.00000
     20       4.8354      0.00000

 k-point     6 :       0.1250    0.1250    0.0000
  band No.  band energies     occupation 
      1     -25.8390      2.00000
      2     -25.8214      2.00000
      3     -21.3265      2.00000
      4     -10.0433      2.00000
      5     -10.0433      2.00000
      6     -10.0071      2.00000
      7      -9.9588      2.00000
      8      -9.9297      2.00000
      9      -9.9297      2.00000
     10      -8.1518      2.00000
     11      -8.1303      2.00000
     12      -8.1303      2.00000
     13      -5.3022      2.00000
     14       1.2673      2.00000
     15       1.7414      2.00000
     16       1.7414      2.00000
     17       2.9904      0.00000
     18       3.7983      0.00000
     19       4.1019      0.00000
     20       4.4425      0.00000

 k-point     7 :       0.2500    0.1250    0.0000
  band No.  band energies     occupation 
      1     -25.8373      2.00000
      2     -25.8228      2.00000
      3     -21.3271      2.00000
      4     -10.0547      2.00000
      5     -10.0525      2.00000
      6      -9.9889      2.00000
      7      -9.9800      2.00000
      8      -9.9276      2.00000
      9      -9.9255      2.00000
     10      -8.1607      2.00000
     11      -8.1231      2.00000
     12      -8.1208      2.00000
     13      -5.2561      2.00000
     14       1.0375      2.00000
     15       1.6595      2.00000
     16       1.7097      2.00000
     17       3.5156      0.00000
     18       4.0721      0.00000
     19       4.1903      0.00000
     20       4.5889      0.00000

 k-point     8 :       0.3750    0.1250    0.0000
  band No.  band energies     occupation 
      1     -25.8345      2.00000
      2     -25.8254      2.00000
      3     -21.3278      2.00000
      4     -10.0561      2.00000
      5     -10.0523      2.00000
      6     -10.0091      2.00000
      7      -9.9648      2.00000
      8      -9.9361      2.00000
      9      -9.9350      2.00000
     10      -8.1592      2.00000
     11      -8.1180      2.00000
     12      -8.1116      2.00000
     13      -5.2062      2.00000
     14       0.9251      2.00000
     15       1.5261      2.00000
     16       1.6274      2.00000
     17       3.9354      0.00000
     18       4.4134      0.00000
     19       4.5597      0.00000
     20       4.8484      0.00000

 k-point     9 :       0.5000    0.1250    0.0000
  band No.  band energies     occupation 
      1     -25.8311      2.00000
      2     -25.8286      2.00000
      3     -21.3283      2.00000
      4     -10.0562      2.00000
[...]
 k-point    15 :       0.5000    0.2500    0.0000
  band No.  band energies     occupation 
      1     -25.8320      2.00000
      2     -25.8275      2.00000
      3     -21.3285      2.00000
      4     -10.0951      2.00000
      5     -10.0774      2.00000
      6     -10.0366      2.00000
      7      -9.9354      2.00000
      8      -9.9193      2.00000
      9      -9.9061      2.00000
     10      -8.1650      2.00000
     11      -8.1098      2.00000
     12      -8.0989      2.00000
     13      -5.1840      2.00000
     14       1.0122      2.00000
     15       1.4743      2.00000
     16       1.6586      2.00000
     17       3.8081      0.00000
     18       4.3057      0.00000
     19       4.8047      0.00000
     20       4.8586      0.00000

 k-point    16 :      -0.3750    0.2500    0.0000
  band No.  band energies     occupation 
      1     -25.8303      2.00000
      2     -25.8292      2.00000
      3     -21.3286      2.00000
      4     -10.0998      2.00000
      5     -10.0567      2.00000
      6     -10.0164      2.00000
      7      -9.9687      2.00000
      8      -9.9371      2.00000
      9      -9.8953      2.00000
     10      -8.1432      2.00000
     11      -8.1238      2.00000
     12      -8.1030      2.00000
     13      -5.1795      2.00000
     14       1.0847      2.00000
     15       1.3772      2.00000
     16       1.5627      2.00000
     17       4.1367      0.00000
     18       4.2464      0.00000
     19       4.8016      0.00000
     20       4.8249      0.00000

 k-point    17 :      -0.2500    0.2500    0.0000
  band No.  band energies     occupation 
      1     -25.8331      2.00000
      2     -25.8266      2.00000
      3     -21.3282      2.00000
      4     -10.0896      2.00000
      5     -10.0254      2.00000
      6     -10.0020      2.00000
      7      -9.9872      2.00000
      8      -9.9615      2.00000
      9      -9.8980      2.00000
     10      -8.1439      2.00000
     11      -8.1234      2.00000
     12      -8.1124      2.00000
     13      -5.1927      2.00000
     14       0.9987      2.00000
     15       1.5028      2.00000
     16       1.5292      2.00000
     17       4.0795      0.00000
     18       4.3703      0.00000
     19       4.5203      0.00000
     20       4.7377      0.00000

 k-point    18 :       0.3750    0.3750    0.0000
  band No.  band energies     occupation 
      1     -25.8339      2.00000
      2     -25.8257      2.00000
      3     -21.3285      2.00000
      4     -10.1019      2.00000
      5     -10.1019      2.00000
      6     -10.0599      2.00000
      7      -9.8994      2.00000
      8      -9.8986      2.00000
      9      -9.8986      2.00000
     10      -8.1948      2.00000
     11      -8.0934      2.00000
     12      -8.0933      2.00000
     13      -5.1960      2.00000
     14       0.9270      2.00000
     15       1.8077      2.00000
     16       1.8077      2.00000
     17       3.3234      0.00000
     18       3.9397      0.00000
     19       4.6195      0.00000
     20       4.8222      0.00000

 k-point    19 :       0.5000    0.3750    0.0000
  band No.  band energies     occupation 
      1     -25.8326      2.00000
      2     -25.8268      2.00000
      3     -21.3288      2.00000
      4     -10.1128      2.00000
      5     -10.1035      2.00000
      6     -10.0640      2.00000
      7      -9.9056      2.00000
      8      -9.8997      2.00000
      9      -9.8839      2.00000
     10      -8.1891      2.00000
     11      -8.0933      2.00000
     12      -8.0898      2.00000
     13      -5.1870      2.00000
     14       1.0322      2.00000
     15       1.6769      2.00000
     16       1.7719      2.00000
     17       3.3677      0.00000
     18       3.8844      0.00000
     19       4.9262      0.00000
     20       4.9513      0.00000

 k-point    20 :      -0.3750    0.3750    0.0000
  band No.  band energies     occupation 
      1     -25.8310      2.00000
      2     -25.8284      2.00000
      3     -21.3288      2.00000
      4     -10.1168      2.00000
      5     -10.0873      2.00000
      6     -10.0427      2.00000
      7      -9.9339      2.00000
      8      -9.9131      2.00000
      9      -9.8817      2.00000
     10      -8.1664      2.00000
     11      -8.1066      2.00000
     12      -8.0938      2.00000
     13      -5.1810      2.00000
     14       1.1751      2.00000
     15       1.3945      2.00000
     16       1.6708      2.00000
     17       3.7236      0.00000
     18       3.9921      0.00000
     19       4.9122      0.00000
     20       5.1617      0.00000

 k-point    21 :       0.5000    0.5000    0.0000
  band No.  band energies     occupation 
      1     -25.8328      2.00000
      2     -25.8265      2.00000
      3     -21.3289      2.00000
      4     -10.1129      2.00000
      5     -10.1129      2.00000
      6     -10.0809      2.00000
      7      -9.8929      2.00000
      8      -9.8929      2.00000
      9      -9.8766      2.00000
     10      -8.1998      2.00000
     11      -8.0861      2.00000
     12      -8.0861      2.00000
     13      -5.1880      2.00000
     14       1.0326      2.00000
     15       1.8196      2.00000
     16       1.8196      2.00000
     17       3.1361      0.00000
     18       3.7281      0.00000
     19       4.9355      0.00000
     20       5.2312      0.00000

 k-point    22 :       0.3750    0.2500    0.1250
  band No.  band energies     occupation 
      1     -25.8355      2.00000
      2     -25.8244      2.00000
      3     -21.3277      2.00000
      4     -10.0783      2.00000
      5     -10.0498      2.00000
      6     -10.0094      2.00000
      7      -9.9601      2.00000
      8      -9.9405      2.00000
      9      -9.9083      2.00000
     10      -8.1653      2.00000
     11      -8.1146      2.00000
     12      -8.1137      2.00000
     13      -5.2197      2.00000
     14       0.9437      2.00000
     15       1.6006      2.00000
     16       1.6986      2.00000
     17       3.8439      0.00000
     18       4.0008      0.00000
     19       4.3986      0.00000
     20       4.8902      0.00000

 k-point    23 :       0.5000    0.2500    0.1250
  band No.  band energies     occupation 
      1     -25.8328      2.00000
      2     -25.8269      2.00000
      3     -21.3283      2.00000
      4     -10.0930      2.00000
      5     -10.0390      2.00000
      6     -10.0277      2.00000
      7      -9.9655      2.00000
      8      -9.9357      2.00000
      9      -9.9045      2.00000
     10      -8.1556      2.00000
     11      -8.1179      2.00000
     12      -8.1048      2.00000
     13      -5.1895      2.00000
     14       0.9749      2.00000
     15       1.5050      2.00000
     16       1.5885      2.00000
     17       4.0077      0.00000
     18       4.2999      0.00000
     19       4.6233      0.00000
     20       4.9343      0.00000

 k-point    24 :      -0.3750    0.2500    0.1250
  band No.  band energies     occupation 
      1     -25.8298      2.00000
      2     -25.8297      2.00000
      3     -21.3285      2.00000
      4     -10.0977      2.00000
      5     -10.0453      2.00000
      6     -10.0127      2.00000
      7      -9.9869      2.00000
      8      -9.9191      2.00000
      9      -9.9120      2.00000
     10      -8.1445      2.00000
     11      -8.1254      2.00000
     12      -8.1011      2.00000
     13      -5.1785      2.00000
     14       1.0245      2.00000
     15       1.4118      2.00000
     16       1.5621      2.00000
     17       4.2387      0.00000
     18       4.2606      0.00000
     19       4.7248      0.00000
     20       5.0557      0.00000

 k-point    25 :       0.5000    0.3750    0.1250
  band No.  band energies     occupation 
      1     -25.8330      2.00000
      2     -25.8266      2.00000
      3     -21.3285      2.00000
      4     -10.1126      2.00000
      5     -10.0733      2.00000
      6     -10.0502      2.00000
      7      -9.9315      2.00000
      8      -9.9035      2.00000
      9      -9.8952      2.00000
     10      -8.1773      2.00000
     11      -8.1047      2.00000
     12      -8.0942      2.00000
     13      -5.1895      2.00000
     14       0.9896      2.00000
     15       1.6453      2.00000
     16       1.6707      2.00000
     17       3.6422      0.00000
     18       4.0563      0.00000
     19       4.7440      0.00000
     20       4.8347      0.00000

 k-point    26 :      -0.3750    0.3750    0.1250
  band No.  band energies     occupation 
      1     -25.8309      2.00000
      2     -25.8285      2.00000
      3     -21.3288      2.00000
      4     -10.1270      2.00000
      5     -10.0602      2.00000
      6     -10.0383      2.00000
      7      -9.9643      2.00000
      8      -9.8969      2.00000
      9      -9.8887      2.00000
     10      -8.1582      2.00000
     11      -8.1181      2.00000
     12      -8.0910      2.00000
     13      -5.1808      2.00000
     14       1.1538      2.00000
     15       1.4165      2.00000
     16       1.6204      2.00000
     17       3.8881      0.00000
     18       4.0537      0.00000
     19       4.6742      0.00000
     20       4.9889      0.00000

 k-point    27 :      -0.2500    0.3750    0.1250
  band No.  band energies     occupation 
      1     -25.8307      2.00000
      2     -25.8288      2.00000
      3     -21.3287      2.00000
      4     -10.1202      2.00000
      5     -10.0503      2.00000
      6     -10.0023      2.00000
      7     -10.0021      2.00000
      8      -9.9115      2.00000
      9      -9.8884      2.00000
     10      -8.1387      2.00000
     11      -8.1339      2.00000
     12      -8.0957      2.00000
     13      -5.1806      2.00000
     14       1.1523      2.00000
     15       1.3737      2.00000
     16       1.5707      2.00000
     17       4.0614      0.00000
     18       4.3457      0.00000
     19       4.3538      0.00000
     20       5.1044      0.00000

 k-point    28 :      -0.3750    0.5000    0.1250
  band No.  band energies     occupation 
      1     -25.8319      2.00000
      2     -25.8275      2.00000
      3     -21.3289      2.00000
      4     -10.1302      2.00000
      5     -10.0828      2.00000
      6     -10.0634      2.00000
      7      -9.9275      2.00000
      8      -9.8906      2.00000
      9      -9.8789      2.00000
     10      -8.1810      2.00000
     11      -8.1008      2.00000
     12      -8.0863      2.00000
     13      -5.1840      2.00000
     14       1.1040      2.00000
     15       1.6165      2.00000
     16       1.6908      2.00000
     17       3.5108      0.00000
     18       3.8277      0.00000
     19       4.9577      0.00000
     20       4.9781      0.00000

 k-point    29 :      -0.2500    0.5000    0.2500
  band No.  band energies     occupation 
      1     -25.8297      2.00000
      2     -25.8297      2.00000
      3     -21.3289      2.00000
      4     -10.1412      2.00000
      5     -10.0522      2.00000
      6     -10.0074      2.00000
      7     -10.0074      2.00000
      8      -9.8859      2.00000
      9      -9.8836      2.00000
     10      -8.1389      2.00000
     11      -8.1389      2.00000
     12      -8.0866      2.00000
     13      -5.1799      2.00000
     14       1.3111      2.00000
     15       1.3112      2.00000
     16       1.5794      2.00000
     17       3.9043      0.00000
     18       4.2764      0.00000
     19       4.2764      0.00000
     20       4.9648      0.00000


--------------------------------------------------------------------------------------------------------


 soft charge-density along one line, spin component           1
         0         1         2         3         4         5         6         7         8         9
 total charge-density along one line
 
 pseudopotential strength for first ion, spin component:           1
 18.715  -4.908  -0.000  -0.000  -0.000   0.000   0.000   0.000
 -4.908   1.293   0.000   0.000   0.000  -0.000  -0.000  -0.000
 -0.000   0.000   2.454   0.000   0.000  -3.024  -0.000  -0.000
 -0.000   0.000   0.000   2.454   0.000  -0.000  -3.024  -0.000
 -0.000   0.000   0.000   0.000   2.454  -0.000  -0.000  -3.024
  0.000  -0.000  -3.024  -0.000  -0.000   3.697   0.000   0.000
  0.000  -0.000  -0.000  -3.024  -0.000   0.000   3.697   0.000
  0.000  -0.000  -0.000  -0.000  -3.024   0.000   0.000   3.697
  0.000  -0.000  -0.000   0.000  -0.000   0.000  -0.000   0.000
  0.000  -0.000  -0.000  -0.000   0.000   0.000   0.000  -0.000
 -0.000   0.000   0.000  -0.000   0.000  -0.000   0.000  -0.000
  0.000  -0.000   0.000  -0.000  -0.000  -0.000   0.000   0.000
  0.000  -0.000   0.000  -0.000  -0.000  -0.000   0.000   0.000
 total augmentation occupancy for first ion, spin component:           1
  1.989  -0.030   0.000  -0.000   0.000   0.000  -0.000   0.000   0.000   0.000   0.000   0.000   0.000
 -0.030   0.454   0.000   0.000  -0.000  -0.000  -0.000  -0.000   0.000   0.000   0.000   0.000   0.000
  0.000  -0.000   2.009  -0.000   0.000   0.010  -0.000  -0.000   0.000  -0.000   0.000  -0.000  -0.000
  0.000  -0.000  -0.000   2.009   0.000  -0.000   0.010   0.000  -0.000  -0.000  -0.000  -0.000   0.000
  0.000   0.000   0.000  -0.000   2.009   0.000   0.000   0.010  -0.000   0.000   0.000  -0.000   0.000
  0.000   0.000   0.010   0.000   0.000   0.013   0.000  -0.000  -0.000  -0.000   0.000  -0.000   0.000
  0.000   0.000   0.000   0.010   0.000   0.000   0.013   0.000  -0.000  -0.000   0.000  -0.000  -0.000
  0.000  -0.000   0.000   0.000   0.010  -0.000   0.000   0.013  -0.000  -0.000  -0.000  -0.000   0.000
  0.000  -0.000   0.000   0.000   0.000  -0.000   0.000   0.000   0.005  -0.000   0.000  -0.000   0.000
  0.000  -0.000   0.000  -0.000  -0.000  -0.000   0.000   0.000  -0.000   0.005  -0.000  -0.000  -0.000
  0.000   0.000   0.000  -0.000  -0.000  -0.000   0.000  -0.000   0.000   0.000   0.023   0.000   0.000
  0.000  -0.000  -0.000   0.000  -0.000  -0.000  -0.000  -0.000  -0.000  -0.000  -0.000   0.005   0.000
  0.000   0.000   0.000   0.000   0.000  -0.000   0.000  -0.000   0.000  -0.000   0.000   0.000   0.023


------------------------ aborting loop because EDIFF is reached ----------------------------------------


    CHARGE:  cpu time    0.0487: real time    0.0487
    FORLOC:  cpu time    0.0084: real time    0.0084
    FORNL :  cpu time    0.0652: real time    0.0652
    STRESS:  cpu time    0.2531: real time    0.2531
    FORCOR:  cpu time    0.0900: real time    0.0900
    FORHAR:  cpu time    0.0242: real time    0.0242
    MIXING:  cpu time    0.0047: real time    0.0047
    OFIELD:  cpu time    0.0001: real time    0.0001

  FORCE on cell =-STRESS in cart. coord.  units (eV):
  Direction    XX          YY          ZZ          XY          YZ          ZX
  --------------------------------------------------------------------------------------
  Alpha Z    92.28859    92.28859    92.28859
  Ewald    -505.64093  -505.64093  -505.64093     0.00013     0.00013     0.00013
  Hartree   129.72192   129.72192   129.72192    -0.00000    -0.00000    -0.00000
  E(xc)    -118.20751  -118.20751  -118.20751     0.00000     0.00000     0.00000
  Local      25.49960    25.49960    25.49960    -0.00008    -0.00008    -0.00008
  n-local     4.57749     4.71187     3.20189     0.88022    -0.72097     0.49174
  augment   -32.32388   -32.32388   -32.32388    -0.00000    -0.00000    -0.00000
  Kinetic   405.36041   404.95381   403.19410     1.72038    -1.46658     1.00663
  Fock        0.00000     0.00000     0.00000     0.00000     0.00000     0.00000
  -------------------------------------------------------------------------------------
  Total       0.00432     0.00432     0.00432     0.00000    -0.00000    -0.00000
  in kB       0.03731     0.03731     0.03731     0.00000    -0.00000    -0.00000
  external pressure =        0.04 kB  Pullay stress =        0.00 kB


 VOLUME and BASIS-vectors are now :
 -----------------------------------------------------------------------------
  energy-cutoff  :      520.00
  volume of cell :      185.54
      direct lattice vectors                 reciprocal lattice vectors
     0.000000000  4.526939575  4.526939575    -0.110449895  0.110449895  0.110449895
     4.526939575  0.000000000  4.526939575     0.110449895 -0.110449895  0.110449895
     4.526939575  4.526939575  0.000000000     0.110449895  0.110449895 -0.110449895

  length of vectors
     6.402059343  6.402059343  6.402059343     0.191304830  0.191304830  0.191304830


 FORCES acting on ions
    electron-ion (+dipol)            ewald-force                    non-local-force                 convergence-correction
 -----------------------------------------------------------------------------------------------
   0.158E-02 0.158E-02 0.141E-02   0.382E-03 0.382E-03 0.382E-03   -.593E-20 -.169E-20 -.424E-20   -.350E-06 -.350E-06 -.294E-06
   -.209E-02 -.209E-02 -.221E-02   -.182E-03 -.182E-03 -.182E-03   0.330E-16 0.434E-16 0.182E-16   0.188E-06 0.188E-06 0.188E-06
   -.781E-03 -.781E-03 -.905E-03   0.587E-05 0.587E-05 0.587E-05   -.295E-16 -.382E-16 -.204E-16   -.965E-07 -.965E-07 -.961E-07
   -.760E-03 -.760E-03 -.710E-03   -.205E-03 -.205E-03 -.205E-03   -.508E-20 0.424E-20 0.424E-20   0.129E-06 0.129E-06 0.103E-06
 -----------------------------------------------------------------------------------------------
   -.205E-02 -.205E-02 -.241E-02   0.369E-15 -.155E-15 0.628E-16   0.346E-17 0.521E-17 -.217E-17   -.130E-06 -.130E-06 -.994E-07
 
 
 POSITION                                       TOTAL-FORCE (eV/Angst)
 -----------------------------------------------------------------------------------
      2.26346      2.26346      2.26346        -0.000000     -0.000000     -0.000000
      0.00000      0.00000      0.00000        -0.000000     -0.000000     -0.000000
      4.52694      4.52694      4.52694         0.000000      0.000000      0.000000
      6.79041      6.79041      6.79041         0.000000     -0.000000     -0.000000
 -----------------------------------------------------------------------------------
    total drift:                               -0.002049     -0.002049     -0.002414


--------------------------------------------------------------------------------------------------------



  FREE ENERGIE OF THE ION-ELECTRON SYSTEM (eV)
  ---------------------------------------------------
  free  energy   TOTEN  =        -8.26779663 eV

  energy  without entropy=       -8.26779663  energy(sigma->0) =       -8.26779663
 


--------------------------------------------------------------------------------------------------------


    POTLOK:  cpu time    0.0879: real time    0.0885


--------------------------------------------------------------------------------------------------------


     LOOP+:  cpu time    9.9298: real time    9.9493
    4ORBIT:  cpu time    0.0000: real time    0.0000

 total amount of memory used by VASP MPI-rank0    57350. kBytes
=======================================================================

   base      :      30000. kBytes
   nonl-proj :       6597. kBytes
   fftplans  :       4869. kBytes
   grid      :       9037. kBytes
   one-center:          8. kBytes
   wavefun   :       6839. kBytes
 
  
  
 General timing and accounting informations for this job:
 ========================================================
  
                  Total CPU time used (sec):       10.692
                            User time (sec):       10.396
                          System time (sec):        0.296
                         Elapsed time (sec):       10.775
  
                   Maximum memory used (kb):      111756.
                   Average memory used (kb):           0.
  
                          Minor page faults:        33220
                          Major page faults:            0
                 Voluntary context switches:          367
