 running on   28 total cores
 distrk:  each k-point on    7 cores,    4 groups
 distr:  one band on    7 cores,    1 groups
 using from now: INCAR     
 vasp.5.4.4.18Apr17-6-g9f103f2a35 (build Jun 23 2019 17:35:09) complex          
  
 POSCAR found type information on POSCAR  Cs Rb Sb
 POSCAR found :  3 types and       4 ions
 scaLAPACK will be used

 ----------------------------------------------------------------------------- 
|                                                                             |
|           W    W    AA    RRRRR   N    N  II  N    N   GGGG   !!!           |
|           W    W   A  A   R    R  NN   N  II  NN   N  G    G  !!!           |
|           W    W  A    A  R    R  N N  N  II  N N  N  G       !!!           |
|           W WW W  AAAAAA  RRRRR   N  N N  II  N  N N  G  GGG   !            |
|           WW  WW  A    A  R   R   N   NN  II  N   NN  G    G                |
|           W    W  A    A  R    R  N    N  II  N    N   GGGG   !!!           |
|                                                                             |
|      You have enabled k-point parallelism (KPAR>1).                         |
|      This developmental code was originally  written by Paul Kent at ORNL,  |
|      and carefully double checked in Vienna.                                |
|      GW as well as linear response parallelism added by Martijn Marsman     |
|      and Georg Kresse.                                                      |
|      Carefully verify results versus KPAR=1.                                |
|      Report problems to Paul Kent and Vienna.                               |
|                                                                             |
 ----------------------------------------------------------------------------- 

 LDA part: xc-table for Pade appr. of Perdew
 POSCAR, INCAR and KPOINTS ok, starting setup
 FFT: planning ...
 WAVECAR not read
 entering main loop
       N       E                     dE             d eps       ncg     rms          rms(c)
DAV:   1     0.224574747597E+03    0.22457E+03   -0.12879E+04  1160   0.134E+03
DAV:   2     0.108664613373E+02   -0.21371E+03   -0.20910E+03  1548   0.237E+02
DAV:   3    -0.902482384298E+01   -0.19891E+02   -0.19852E+02  1776   0.775E+01
DAV:   4    -0.947776800611E+01   -0.45294E+00   -0.45157E+00  1640   0.121E+01
DAV:   5    -0.948975976840E+01   -0.11992E-01   -0.11990E-01  1540   0.160E+00    0.426E+00
DAV:   6    -0.839048387484E+01    0.10993E+01   -0.20834E+00  1336   0.463E+00    0.301E+00
DAV:   7    -0.826505512538E+01    0.12543E+00   -0.12322E+00  1452   0.304E+00    0.168E+00
DAV:   8    -0.828427503231E+01   -0.19220E-01   -0.28223E-01  1288   0.157E+00    0.406E-01
DAV:   9    -0.826718195144E+01    0.17093E-01   -0.11814E-01  1348   0.891E-01    0.298E-01
DAV:  10    -0.826749232480E+01   -0.31037E-03   -0.95394E-03  1460   0.322E-01    0.117E-01
DAV:  11    -0.826781182095E+01   -0.31950E-03   -0.79179E-04  1356   0.170E-01    0.275E-02
DAV:  12    -0.826779954403E+01    0.12277E-04   -0.28617E-04  1672   0.418E-02    0.130E-02
DAV:  13    -0.826779583962E+01    0.37044E-05   -0.52775E-05  1364   0.266E-02    0.194E-03
DAV:  14    -0.826779640455E+01   -0.56494E-06   -0.47194E-06  1824   0.732E-03    0.360E-03
DAV:  15    -0.826779655694E+01   -0.15239E-06   -0.98836E-08  1332   0.180E-03    0.133E-03
DAV:  16    -0.826779657654E+01   -0.19603E-07   -0.35699E-08  1188   0.743E-04    0.887E-04
DAV:  17    -0.826779662709E+01   -0.50551E-07   -0.66651E-09   892   0.510E-04    0.170E-04
DAV:  18    -0.826779662611E+01    0.98521E-09   -0.59628E-09   932   0.255E-04
   1 F= -.82677966E+01 E0= -.82677966E+01  d E =-.632422E-19
