<?xml version="1.0" encoding="ISO-8859-1"?>
<modeling>
 <generator>
  <i name="program" type="string">vasp </i>
  <i name="version" type="string">5.4.4.18Apr17-6-g9f103f2a35  </i>
  <i name="subversion" type="string">(build Jun 23 2019 17:35:09) complex            parallel </i>
  <i name="platform" type="string">LinuxIFC </i>
  <i name="date" type="string">2020 01 15 </i>
  <i name="time" type="string">15:39:43 </i>
 </generator>
 <incar>
  <i type="int" name="ISTART">     0</i>
  <i type="string" name="PREC">acc</i>
  <i type="string" name="ALGO"> Normal</i>
  <i type="int" name="ISPIN">     1</i>
  <i type="int" name="NELM">   150</i>
  <i type="int" name="NELMIN">     5</i>
  <i type="int" name="IBRION">    -1</i>
  <i name="EDIFF">      0.00000001</i>
  <i type="int" name="NSW">     0</i>
  <i type="int" name="ISIF">     3</i>
  <i name="ENCUT">    520.00000000</i>
  <i type="logical" name="LREAL"> F  </i>
  <i type="logical" name="LPLANE"> T  </i>
  <i type="int" name="ISMEAR">     0</i>
  <i name="SIGMA">      0.05000000</i>
  <i type="logical" name="LWAVE"> F  </i>
  <i type="logical" name="LCHARG"> F  </i>
  <v type="int" name="KPOINT_BSE">    -1     0     0     0</v>
  <i type="int" name="NELM">   150</i>
  <i type="string" name="GGA"> PE</i>
 </incar>
 <structure name="primitive_cell" >
  <crystal>
   <varray name="basis" >
    <v>       0.00000000       4.52693957       4.52693957 </v>
    <v>       4.52693957       0.00000000       4.52693957 </v>
    <v>       4.52693957       4.52693957       0.00000000 </v>
   </varray>
   <i name="volume">    185.54279244 </i>
   <varray name="rec_basis" >
    <v>      -0.11044989       0.11044989       0.11044989 </v>
    <v>       0.11044989      -0.11044989       0.11044989 </v>
    <v>       0.11044989       0.11044989      -0.11044989 </v>
   </varray>
  </crystal>
  <varray name="positions" >
   <v>       0.24999934       0.24999934       0.24999934 </v>
   <v>       0.00000000       0.00000000       0.00000000 </v>
   <v>       0.49999978       0.49999978       0.49999978 </v>
   <v>      -0.24999978      -0.24999978      -0.24999978 </v>
  </varray>
 </structure>
 <varray name="primitive_index" >
  <v type="int" >        1 </v>
  <v type="int" >        2 </v>
  <v type="int" >        3 </v>
  <v type="int" >        4 </v>
 </varray>
 <kpoints>
  <generation param="Gamma">
   <v type="int" name="divisions">       8        8        8 </v>
   <v name="usershift">      0.00000000       0.00000000       0.00000000 </v>
   <v name="genvec1">      0.12500000       0.00000000       0.00000000 </v>
   <v name="genvec2">      0.00000000       0.12500000       0.00000000 </v>
   <v name="genvec3">      0.00000000       0.00000000       0.12500000 </v>
   <v name="shift">      0.00000000       0.00000000       0.00000000 </v>
  </generation>
  <varray name="kpointlist" >
   <v>       0.00000000       0.00000000       0.00000000 </v>
   <v>       0.12500000       0.00000000       0.00000000 </v>
   <v>       0.25000000       0.00000000       0.00000000 </v>
   <v>       0.37500000       0.00000000       0.00000000 </v>
   <v>       0.50000000       0.00000000       0.00000000 </v>
   <v>       0.12500000       0.12500000       0.00000000 </v>
   <v>       0.25000000       0.12500000       0.00000000 </v>
   <v>       0.37500000       0.12500000       0.00000000 </v>
   <v>       0.50000000       0.12500000       0.00000000 </v>
   <v>      -0.37500000       0.12500000       0.00000000 </v>
   <v>      -0.25000000       0.12500000       0.00000000 </v>
   <v>      -0.12500000       0.12500000       0.00000000 </v>
   <v>       0.25000000       0.25000000       0.00000000 </v>
   <v>       0.37500000       0.25000000       0.00000000 </v>
   <v>       0.50000000       0.25000000       0.00000000 </v>
   <v>      -0.37500000       0.25000000       0.00000000 </v>
   <v>      -0.25000000       0.25000000       0.00000000 </v>
   <v>       0.37500000       0.37500000       0.00000000 </v>
   <v>       0.50000000       0.37500000       0.00000000 </v>
   <v>      -0.37500000       0.37500000       0.00000000 </v>
   <v>       0.50000000       0.50000000       0.00000000 </v>
   <v>       0.37500000       0.25000000       0.12500000 </v>
   <v>       0.50000000       0.25000000       0.12500000 </v>
   <v>      -0.37500000       0.25000000       0.12500000 </v>
   <v>       0.50000000       0.37500000       0.12500000 </v>
   <v>      -0.37500000       0.37500000       0.12500000 </v>
   <v>      -0.25000000       0.37500000       0.12500000 </v>
   <v>      -0.37500000       0.50000000       0.12500000 </v>
   <v>      -0.25000000       0.50000000       0.25000000 </v>
  </varray>
  <varray name="weights" >
   <v>       0.00195312 </v>
   <v>       0.01562500 </v>
   <v>       0.01562500 </v>
   <v>       0.01562500 </v>
   <v>       0.00781250 </v>
   <v>       0.01171875 </v>
   <v>       0.04687500 </v>
   <v>       0.04687500 </v>
   <v>       0.04687500 </v>
   <v>       0.04687500 </v>
   <v>       0.04687500 </v>
   <v>       0.02343750 </v>
   <v>       0.01171875 </v>
   <v>       0.04687500 </v>
   <v>       0.04687500 </v>
   <v>       0.04687500 </v>
   <v>       0.02343750 </v>
   <v>       0.01171875 </v>
   <v>       0.04687500 </v>
   <v>       0.02343750 </v>
   <v>       0.00585938 </v>
   <v>       0.04687500 </v>
   <v>       0.09375000 </v>
   <v>       0.04687500 </v>
   <v>       0.04687500 </v>
   <v>       0.09375000 </v>
   <v>       0.04687500 </v>
   <v>       0.02343750 </v>
   <v>       0.01171875 </v>
  </varray>
 </kpoints>
 <parameters>
  <separator name="general" >
   <i type="string" name="SYSTEM">unknown system</i>
   <i type="logical" name="LCOMPAT"> F  </i>
  </separator>
  <separator name="electronic" >
   <i type="string" name="PREC">acc</i>
   <i name="ENMAX">    520.00000000</i>
   <i name="ENAUG">    423.86100000</i>
   <i name="EDIFF">      0.00000001</i>
   <i type="int" name="IALGO">    38</i>
   <i type="int" name="IWAVPR">    10</i>
   <i type="int" name="NBANDS">    20</i>
   <i name="NELECT">     32.00000000</i>
   <i type="int" name="TURBO">     0</i>
   <i type="int" name="IRESTART">     0</i>
   <i type="int" name="NREBOOT">     0</i>
   <i type="int" name="NMIN">     0</i>
   <i name="EREF">      0.00000000</i>
   <separator name="electronic smearing" >
    <i type="int" name="ISMEAR">     0</i>
    <i name="SIGMA">      0.05000000</i>
    <i name="KSPACING">      0.50000000</i>
    <i type="logical" name="KGAMMA"> T  </i>
   </separator>
   <separator name="electronic projectors" >
    <i type="logical" name="LREAL"> F  </i>
    <v name="ROPT">      0.00000000      0.00000000      0.00000000</v>
    <i type="int" name="LMAXPAW">  -100</i>
    <i type="int" name="LMAXMIX">     2</i>
    <i type="logical" name="NLSPLINE"> F  </i>
   </separator>
   <separator name="electronic startup" >
    <i type="int" name="ISTART">     0</i>
    <i type="int" name="ICHARG">     2</i>
    <i type="int" name="INIWAV">     1</i>
   </separator>
   <separator name="electronic spin" >
    <i type="int" name="ISPIN">     1</i>
    <i type="logical" name="LNONCOLLINEAR"> F  </i>
    <v name="MAGMOM">      1.00000000      1.00000000      1.00000000      1.00000000</v>
    <i name="NUPDOWN">     -1.00000000</i>
    <i type="logical" name="LSORBIT"> F  </i>
    <v name="SAXIS">      0.00000000      0.00000000      1.00000000</v>
    <i type="logical" name="LSPIRAL"> F  </i>
    <v name="QSPIRAL">      0.00000000      0.00000000      0.00000000</v>
    <i type="logical" name="LZEROZ"> F  </i>
   </separator>
   <separator name="electronic exchange-correlation" >
    <i type="logical" name="LASPH"> F  </i>
    <i type="logical" name="LMETAGGA"> F  </i>
   </separator>
   <separator name="electronic convergence" >
    <i type="int" name="NELM">   150</i>
    <i type="int" name="NELMDL">    -5</i>
    <i type="int" name="NELMIN">     5</i>
    <i name="ENINI">    520.00000000</i>
    <separator name="electronic convergence detail" >
     <i type="logical" name="LDIAG"> T  </i>
     <i type="logical" name="LSUBROT"> F  </i>
     <i name="WEIMIN">      0.00000000</i>
     <i name="EBREAK">      0.00000000</i>
     <i name="DEPER">      0.30000000</i>
     <i type="int" name="NRMM">     4</i>
     <i name="TIME">      0.40000000</i>
    </separator>
   </separator>
   <separator name="electronic mixer" >
    <i name="AMIX">      0.40000000</i>
    <i name="BMIX">      1.00000000</i>
    <i name="AMIN">      0.10000000</i>
    <i name="AMIX_MAG">      1.60000000</i>
    <i name="BMIX_MAG">      1.00000000</i>
    <separator name="electronic mixer details" >
     <i type="int" name="IMIX">     4</i>
     <i type="logical" name="MIXFIRST"> F  </i>
     <i type="int" name="MAXMIX">   -45</i>
     <i name="WC">    100.00000000</i>
     <i type="int" name="INIMIX">     1</i>
     <i type="int" name="MIXPRE">     1</i>
     <i type="int" name="MREMOVE">     5</i>
    </separator>
   </separator>
   <separator name="electronic dipolcorrection" >
    <i type="logical" name="LDIPOL"> F  </i>
    <i type="logical" name="LMONO"> F  </i>
    <i type="int" name="IDIPOL">     0</i>
    <i name="EPSILON">      1.00000000</i>
    <v name="DIPOL">   -100.00000000   -100.00000000   -100.00000000</v>
    <i name="EFIELD">      0.00000000</i>
   </separator>
  </separator>
  <separator name="grids" >
   <i type="int" name="NGX">    48</i>
   <i type="int" name="NGY">    48</i>
   <i type="int" name="NGZ">    48</i>
   <i type="int" name="NGXF">    96</i>
   <i type="int" name="NGYF">    96</i>
   <i type="int" name="NGZF">    96</i>
   <i type="logical" name="ADDGRID"> F  </i>
  </separator>
  <separator name="ionic" >
   <i type="int" name="NSW">     0</i>
   <i type="int" name="IBRION">    -1</i>
   <i type="int" name="MDALGO">     0</i>
   <i type="int" name="ISIF">     3</i>
   <i name="PSTRESS">      0.00000000</i>
   <i name="EDIFFG">      0.00000010</i>
   <i type="int" name="NFREE">     0</i>
   <i name="POTIM">      0.50000000</i>
   <i name="SMASS">     -3.00000000</i>
   <i name="SCALEE">      1.00000000</i>
  </separator>
  <separator name="ionic md" >
   <i name="TEBEG">      0.00010000</i>
   <i name="TEEND">      0.00010000</i>
   <i type="int" name="NBLOCK">     1</i>
   <i type="int" name="KBLOCK">     1</i>
   <i type="int" name="NPACO">   256</i>
   <i name="APACO">     16.00000000</i>
  </separator>
  <separator name="symmetry" >
   <i type="int" name="ISYM">     2</i>
   <i name="SYMPREC">      0.00001000</i>
  </separator>
  <separator name="dos" >
   <i type="int" name="LORBIT">     0</i>
   <v name="RWIGS">     -1.00000000     -1.00000000     -1.00000000</v>
   <i type="int" name="NEDOS">   301</i>
   <i name="EMIN">     10.00000000</i>
   <i name="EMAX">    -10.00000000</i>
   <i name="EFERMI">      0.00000000</i>
  </separator>
  <separator name="writing" >
   <i type="int" name="NWRITE">     2</i>
   <i type="logical" name="LWAVE"> F  </i>
   <i type="logical" name="LDOWNSAMPLE"> F  </i>
   <i type="logical" name="LCHARG"> F  </i>
   <i type="logical" name="LPARD"> F  </i>
   <i type="logical" name="LVTOT"> F  </i>
   <i type="logical" name="LVHAR"> F  </i>
   <i type="logical" name="LELF"> F  </i>
   <i type="logical" name="LOPTICS"> F  </i>
   <v name="STM">      0.00000000      0.00000000      0.00000000      0.00000000      0.00000000      0.00000000      0.00000000</v>
  </separator>
  <separator name="performance" >
   <i type="int" name="NPAR">     1</i>
   <i type="int" name="NSIM">     4</i>
   <i type="int" name="NBLK">    -1</i>
   <i type="logical" name="LPLANE"> T  </i>
   <i type="logical" name="LSCALAPACK"> T  </i>
   <i type="logical" name="LSCAAWARE"> F  </i>
   <i type="logical" name="LSCALU"> F  </i>
   <i type="logical" name="LASYNC"> F  </i>
   <i type="logical" name="LORBITALREAL"> F  </i>
  </separator>
  <separator name="miscellaneous" >
   <i type="int" name="IDIOT">     3</i>
   <i type="int" name="ISPECIAL">     0</i>
   <i type="logical" name="LMUSIC"> F  </i>
   <v name="POMASS">    132.90000000     85.46800000    121.75000000</v>
   <v name="DARWINR">      0.00000000      0.00000000      0.00000000</v>
   <v name="DARWINV">      1.00000000      1.00000000      1.00000000</v>
   <i type="logical" name="LCORR"> T  </i>
  </separator>
  <i type="logical" name="GGA_COMPAT"> T  </i>
  <i type="logical" name="LBERRY"> F  </i>
  <i type="int" name="ICORELEVEL">     0</i>
  <i type="logical" name="LDAU"> F  </i>
  <i type="int" name="I_CONSTRAINED_M">     0</i>
  <separator name="electronic exchange-correlation" >
   <i type="string" name="GGA">PE</i>
   <i type="int" name="VOSKOWN">     0</i>
   <i type="logical" name="LHFCALC"> F  </i>
   <i type="string" name="PRECFOCK"></i>
   <i type="logical" name="LSYMGRAD"> F  </i>
   <i type="logical" name="LHFONE"> F  </i>
   <i type="logical" name="LRHFCALC"> F  </i>
   <i type="logical" name="LTHOMAS"> F  </i>
   <i type="logical" name="LMODELHF"> F  </i>
   <i name="ENCUT4O">     -1.00000000</i>
   <i type="int" name="EXXOEP">     0</i>
   <i type="int" name="FOURORBIT">     0</i>
   <i name="AEXX">      0.00000000</i>
   <i name="HFALPHA">      0.00000000</i>
   <i name="MCALPHA">      0.00000000</i>
   <i name="ALDAX">      1.00000000</i>
   <i name="AGGAX">      1.00000000</i>
   <i name="ALDAC">      1.00000000</i>
   <i name="AGGAC">      1.00000000</i>
   <i type="int" name="NKREDX">     1</i>
   <i type="int" name="NKREDY">     1</i>
   <i type="int" name="NKREDZ">     1</i>
   <i type="logical" name="SHIFTRED"> F  </i>
   <i type="logical" name="ODDONLY"> F  </i>
   <i type="logical" name="EVENONLY"> F  </i>
   <i type="int" name="LMAXFOCK">     0</i>
   <i type="int" name="NMAXFOCKAE">     0</i>
   <i type="logical" name="LFOCKAEDFT"> F  </i>
   <i name="HFSCREEN">      0.00000000</i>
   <i name="HFSCREENC">      0.00000000</i>
   <i type="int" name="NBANDSGWLOW">     0</i>
  </separator>
  <separator name="vdW DFT" >
   <i type="logical" name="LUSE_VDW"> F  </i>
   <i name="Zab_VDW">     -0.84910000</i>
   <i name="PARAM1">      0.12340000</i>
   <i name="PARAM2">      1.00000000</i>
   <i name="PARAM3">      0.00000000</i>
  </separator>
  <separator name="model GW" >
   <i type="int" name="MODEL_GW">     0</i>
   <i name="MODEL_EPS0">     27.83141887</i>
   <i name="MODEL_ALPHA">      1.00000000</i>
  </separator>
  <separator name="linear response parameters" >
   <i type="logical" name="LEPSILON"> F  </i>
   <i type="logical" name="LRPA"> F  </i>
   <i type="logical" name="LNABLA"> F  </i>
   <i type="logical" name="LVEL"> F  </i>
   <i type="int" name="KINTER">     0</i>
   <i name="CSHIFT">      0.10000000</i>
   <i name="OMEGAMAX">     -1.00000000</i>
   <i name="DEG_THRESHOLD">      0.00200000</i>
   <i name="RTIME">     -0.10000000</i>
   <i name="WPLASMAI">      0.00000000</i>
   <v name="DFIELD">      0.00000000      0.00000000      0.00000000</v>
   <v name="WPLASMA">      0.00000000      0.00000000      0.00000000      0.00000000      0.00000000      0.00000000      0.00000000      0.00000000      0.00000000</v>
  </separator>
  <separator name="orbital magnetization" >
   <i type="logical" name="NUCIND"> F  </i>
   <v name="MAGPOS">      0.00000000      0.00000000      0.00000000</v>
   <i type="logical" name="LNICSALL"> T  </i>
   <i type="logical" name="ORBITALMAG"> F  </i>
   <i type="logical" name="LMAGBLOCH"> F  </i>
   <i type="logical" name="LCHIMAG"> F  </i>
   <i type="logical" name="LGAUGE"> T  </i>
   <i type="int" name="MAGATOM">     0</i>
   <v name="MAGDIPOL">      0.00000000      0.00000000      0.00000000</v>
   <v name="AVECCONST">      0.00000000      0.00000000      0.00000000</v>
  </separator>
  <separator name="response functions" >
   <i type="logical" name="LADDER"> F  </i>
   <i type="logical" name="LRPAFORCE"> F  </i>
   <i type="logical" name="LFXC"> F  </i>
   <i type="logical" name="LHARTREE"> T  </i>
   <i type="int" name="IBSE">     0</i>
   <v type="int" name="KPOINT">    -1     0     0     0</v>
   <i type="logical" name="LTCTE"> F  </i>
   <i type="logical" name="LTETE"> F  </i>
   <i type="logical" name="LTRIPLET"> F  </i>
   <i type="logical" name="LFXCEPS"> F  </i>
   <i type="logical" name="LFXHEG"> F  </i>
   <i type="int" name="NATURALO">     2</i>
   <i type="logical" name="L2ORDER"> F  </i>
   <i type="logical" name="LMP2LT"> F  </i>
   <i type="logical" name="LUSEW"> F  </i>
   <i name="ENCUTGW">     -2.00000000</i>
   <i name="ENCUTGWSOFT">     -2.00000000</i>
   <i name="ENCUTLF">     -1.00000000</i>
   <i type="int" name="LMAXMP2">    -1</i>
   <i name="SCISSOR">      0.00000000</i>
   <i type="int" name="NOMEGA">     0</i>
   <i type="int" name="NOMEGAR">     0</i>
   <i type="int" name="NBANDSGW">    -1</i>
   <i type="int" name="NBANDSO">    -1</i>
   <i type="int" name="NBANDSV">    -1</i>
   <i type="int" name="NELM">   150</i>
   <i type="int" name="NELMHF">     1</i>
   <i type="int" name="DIM">     3</i>
   <i type="int" name="ANTIRES">     0</i>
   <i name="OMEGAMAX">    -30.00000000</i>
   <i name="OMEGAMIN">    -30.00000000</i>
   <i name="OMEGATL">   -200.00000000</i>
   <i type="int" name="OMEGAGRID">   140</i>
   <i name="CSHIFT">     -0.10000000</i>
   <i type="logical" name="SELFENERGY"> F  </i>
   <i type="logical" name="LSPECTRAL"> F  </i>
   <i type="logical" name="LSPECTRALGW"> F  </i>
   <i type="logical" name="LSINGLES"> F  </i>
   <i type="logical" name="LFERMIGW"> F  </i>
   <i type="logical" name="ODDONLYGW"> F  </i>
   <i type="logical" name="EVENONLYGW"> F  </i>
   <i type="int" name="NKREDLFX">     1</i>
   <i type="int" name="NKREDLFY">     1</i>
   <i type="int" name="NKREDLFZ">     1</i>
   <i type="int" name="MAXMEM">  2800</i>
   <i type="int" name="TELESCOPE">     0</i>
   <i type="int" name="TAUPAR">     1</i>
   <i type="int" name="OMEGAPAR">    -1</i>
   <i name="LAMBDA">      1.00000000</i>
  </separator>
  <separator name="External order field" >
   <i name="OFIELD_KAPPA">      0.00000000</i>
   <v name="OFIELD_K">      0.00000000      0.00000000      0.00000000</v>
   <i name="OFIELD_Q6_NEAR">      0.00000000</i>
   <i name="OFIELD_Q6_FAR">      0.00000000</i>
   <i name="OFIELD_A">      0.00000000</i>
  </separator>
 </parameters>
 <atominfo>
  <atoms>       4 </atoms>
  <types>       3 </types>
  <array name="atoms" >
   <dimension dim="1">ion</dimension>
   <field type="string">element</field>
   <field type="int">atomtype</field>
   <set>
    <rc><c>Cs</c><c>   1</c></rc>
    <rc><c>Rb</c><c>   2</c></rc>
    <rc><c>Rb</c><c>   2</c></rc>
    <rc><c>Sb</c><c>   3</c></rc>
   </set>
  </array>
  <array name="atomtypes" >
   <dimension dim="1">type</dimension>
   <field type="int">atomspertype</field>
   <field type="string">element</field>
   <field>mass</field>
   <field>valence</field>
   <field type="string">pseudopotential</field>
   <set>
    <rc><c>   1</c><c>Cs</c><c>    132.90000000</c><c>      9.00000000</c><c>  PAW_PBE Cs_sv 08Apr2002               </c></rc>
    <rc><c>   2</c><c>Rb</c><c>     85.46800000</c><c>      9.00000000</c><c>  PAW_PBE Rb_sv 06Sep2000               </c></rc>
    <rc><c>   1</c><c>Sb</c><c>    121.75000000</c><c>      5.00000000</c><c>  PAW_PBE Sb 06Sep2000                  </c></rc>
   </set>
  </array>
 </atominfo>
 <structure name="initialpos" >
  <crystal>
   <varray name="basis" >
    <v>       0.00000000       4.52693957       4.52693957 </v>
    <v>       4.52693957       0.00000000       4.52693957 </v>
    <v>       4.52693957       4.52693957       0.00000000 </v>
   </varray>
   <i name="volume">    185.54279244 </i>
   <varray name="rec_basis" >
    <v>      -0.11044989       0.11044989       0.11044989 </v>
    <v>       0.11044989      -0.11044989       0.11044989 </v>
    <v>       0.11044989       0.11044989      -0.11044989 </v>
   </varray>
  </crystal>
  <varray name="positions" >
   <v>       0.24999934       0.24999934       0.24999934 </v>
   <v>       0.00000000       0.00000000       0.00000000 </v>
   <v>       0.49999978       0.49999978       0.49999978 </v>
   <v>       0.75000022       0.75000022       0.75000022 </v>
  </varray>
 </structure>
 <calculation>
  <scstep>
   <time name="dav">    0.38    0.38</time>
   <time name="total">    0.47    0.47</time>
   <energy>
    <i name="alphaZ">     92.28858994 </i>
    <i name="ewald">  -1516.92148236 </i>
    <i name="hartreedc">   -400.59725681 </i>
    <i name="XCdc">     22.19501211 </i>
    <i name="pawpsdc">   1598.61849123 </i>
    <i name="pawaedc">  -1528.63182258 </i>
    <i name="eentropy">     -0.00446883 </i>
    <i name="bandstr">    -73.01093600 </i>
    <i name="atom">   2030.63862089 </i>
    <i name="e_fr_energy">    224.57474760 </i>
    <i name="e_wo_entrp">    224.57921643 </i>
    <i name="e_0_energy">    224.57698201 </i>
   </energy>
  </scstep>
  <scstep>
   <time name="dav">    0.42    0.42</time>
   <time name="total">    0.42    0.42</time>
   <energy>
    <i name="e_fr_energy">     10.86646134 </i>
    <i name="e_wo_entrp">     10.86646134 </i>
    <i name="e_0_energy">     10.86646134 </i>
   </energy>
  </scstep>
  <scstep>
   <time name="dav">    0.48    0.49</time>
   <time name="total">    0.49    0.49</time>
   <energy>
    <i name="e_fr_energy">     -9.02482384 </i>
    <i name="e_wo_entrp">     -9.02482384 </i>
    <i name="e_0_energy">     -9.02482384 </i>
   </energy>
  </scstep>
  <scstep>
   <time name="dav">    0.47    0.47</time>
   <time name="total">    0.47    0.47</time>
   <energy>
    <i name="e_fr_energy">     -9.47776801 </i>
    <i name="e_wo_entrp">     -9.47776801 </i>
    <i name="e_0_energy">     -9.47776801 </i>
   </energy>
  </scstep>
  <scstep>
   <time name="dav">    0.43    0.43</time>
   <time name="total">    0.49    0.49</time>
   <energy>
    <i name="e_fr_energy">     -9.48975977 </i>
    <i name="e_wo_entrp">     -9.48975977 </i>
    <i name="e_0_energy">     -9.48975977 </i>
   </energy>
  </scstep>
  <scstep>
   <time name="dav">    0.40    0.40</time>
   <time name="total">    0.54    0.54</time>
   <energy>
    <i name="e_fr_energy">     -8.39048387 </i>
    <i name="e_wo_entrp">     -8.39048387 </i>
    <i name="e_0_energy">     -8.39048387 </i>
   </energy>
  </scstep>
  <scstep>
   <time name="dav">    0.42    0.42</time>
   <time name="total">    0.57    0.57</time>
   <energy>
    <i name="e_fr_energy">     -8.26505513 </i>
    <i name="e_wo_entrp">     -8.26505513 </i>
    <i name="e_0_energy">     -8.26505513 </i>
   </energy>
  </scstep>
  <scstep>
   <time name="dav">    0.40    0.40</time>
   <time name="total">    0.54    0.54</time>
   <energy>
    <i name="e_fr_energy">     -8.28427503 </i>
    <i name="e_wo_entrp">     -8.28427503 </i>
    <i name="e_0_energy">     -8.28427503 </i>
   </energy>
  </scstep>
  <scstep>
   <time name="dav">    0.41    0.41</time>
   <time name="total">    0.55    0.55</time>
   <energy>
    <i name="e_fr_energy">     -8.26718195 </i>
    <i name="e_wo_entrp">     -8.26718195 </i>
    <i name="e_0_energy">     -8.26718195 </i>
   </energy>
  </scstep>
  <scstep>
   <time name="dav">    0.42    0.43</time>
   <time name="total">    0.57    0.57</time>
   <energy>
    <i name="e_fr_energy">     -8.26749232 </i>
    <i name="e_wo_entrp">     -8.26749232 </i>
    <i name="e_0_energy">     -8.26749232 </i>
   </energy>
  </scstep>
  <scstep>
   <time name="dav">    0.40    0.40</time>
   <time name="total">    0.54    0.54</time>
   <energy>
    <i name="e_fr_energy">     -8.26781182 </i>
    <i name="e_wo_entrp">     -8.26781182 </i>
    <i name="e_0_energy">     -8.26781182 </i>
   </energy>
  </scstep>
  <scstep>
   <time name="dav">    0.47    0.47</time>
   <time name="total">    0.61    0.61</time>
   <energy>
    <i name="e_fr_energy">     -8.26779954 </i>
    <i name="e_wo_entrp">     -8.26779954 </i>
    <i name="e_0_energy">     -8.26779954 </i>
   </energy>
  </scstep>
  <scstep>
   <time name="dav">    0.42    0.42</time>
   <time name="total">    0.56    0.56</time>
   <energy>
    <i name="e_fr_energy">     -8.26779584 </i>
    <i name="e_wo_entrp">     -8.26779584 </i>
    <i name="e_0_energy">     -8.26779584 </i>
   </energy>
  </scstep>
  <scstep>
   <time name="dav">    0.51    0.51</time>
   <time name="total">    0.65    0.65</time>
   <energy>
    <i name="e_fr_energy">     -8.26779640 </i>
    <i name="e_wo_entrp">     -8.26779640 </i>
    <i name="e_0_energy">     -8.26779640 </i>
   </energy>
  </scstep>
  <scstep>
   <time name="dav">    0.39    0.39</time>
   <time name="total">    0.54    0.54</time>
   <energy>
    <i name="e_fr_energy">     -8.26779656 </i>
    <i name="e_wo_entrp">     -8.26779656 </i>
    <i name="e_0_energy">     -8.26779656 </i>
   </energy>
  </scstep>
  <scstep>
   <time name="dav">    0.38    0.38</time>
   <time name="total">    0.52    0.52</time>
   <energy>
    <i name="e_fr_energy">     -8.26779658 </i>
    <i name="e_wo_entrp">     -8.26779658 </i>
    <i name="e_0_energy">     -8.26779658 </i>
   </energy>
  </scstep>
  <scstep>
   <time name="dav">    0.29    0.29</time>
   <time name="total">    0.43    0.43</time>
   <energy>
    <i name="e_fr_energy">     -8.26779663 </i>
    <i name="e_wo_entrp">     -8.26779663 </i>
    <i name="e_0_energy">     -8.26779663 </i>
   </energy>
  </scstep>
  <scstep>
   <time name="dav">    0.31    0.31</time>
   <time name="total">    0.39    0.39</time>
   <energy>
    <i name="alphaZ">     92.28858994 </i>
    <i name="ewald">  -1516.92148236 </i>
    <i name="hartreedc">   -389.16563554 </i>
    <i name="XCdc">     22.33167711 </i>
    <i name="pawpsdc">   1753.58519273 </i>
    <i name="pawaedc">  -1684.34799983 </i>
    <i name="eentropy">     -0.00000000 </i>
    <i name="bandstr">   -316.67675957 </i>
    <i name="atom">   2030.63862089 </i>
    <i name="e_fr_energy">     -8.26779663 </i>
    <i name="e_wo_entrp">     -8.26779663 </i>
    <i name="e_0_energy">     -8.26779663 </i>
   </energy>
  </scstep>
  <structure>
   <crystal>
    <varray name="basis" >
     <v>       0.00000000       4.52693957       4.52693957 </v>
     <v>       4.52693957       0.00000000       4.52693957 </v>
     <v>       4.52693957       4.52693957       0.00000000 </v>
    </varray>
    <i name="volume">    185.54279244 </i>
    <varray name="rec_basis" >
     <v>      -0.11044989       0.11044989       0.11044989 </v>
     <v>       0.11044989      -0.11044989       0.11044989 </v>
     <v>       0.11044989       0.11044989      -0.11044989 </v>
    </varray>
   </crystal>
   <varray name="positions" >
    <v>       0.24999934       0.24999934       0.24999934 </v>
    <v>       0.00000000       0.00000000       0.00000000 </v>
    <v>       0.49999978       0.49999978       0.49999978 </v>
    <v>       0.75000022       0.75000022       0.75000022 </v>
   </varray>
  </structure>
  <varray name="forces" >
   <v>      -0.00000000      -0.00000000      -0.00000000 </v>
   <v>      -0.00000000      -0.00000000      -0.00000000 </v>
   <v>       0.00000000       0.00000000       0.00000000 </v>
   <v>       0.00000000      -0.00000000      -0.00000000 </v>
  </varray>
  <varray name="stress" >
   <v>       0.03730916       0.00000000      -0.00000000 </v>
   <v>       0.00000000       0.03730916      -0.00000000 </v>
   <v>      -0.00000000      -0.00000000       0.03730916 </v>
  </varray>
  <energy>
   <i name="e_fr_energy">     -8.26779663 </i>
   <i name="e_wo_entrp">     -8.26779663 </i>
   <i name="e_0_energy">     -0.00000000 </i>
  </energy>
  <time name="totalsc">    9.93    9.95</time>
  <eigenvalues>
   <array>
    <dimension dim="1">band</dimension>
    <dimension dim="2">kpoint</dimension>
    <dimension dim="3">spin</dimension>
    <field>eigene</field>
    <field>occ</field>
    <set>
     <set comment="spin 1">
      <set comment="kpoint 1">
       <r>  -25.8401    1.0000 </r>
       <r>  -25.8205    1.0000 </r>
       <r>  -21.3261    1.0000 </r>
       <r>  -10.0289    1.0000 </r>
       <r>  -10.0289    1.0000 </r>
       <r>  -10.0289    1.0000 </r>
       <r>   -9.9380    1.0000 </r>
       <r>   -9.9380    1.0000 </r>
       <r>   -9.9380    1.0000 </r>
       <r>   -8.1384    1.0000 </r>
       <r>   -8.1384    1.0000 </r>
       <r>   -8.1384    1.0000 </r>
       <r>   -5.3381    1.0000 </r>
       <r>    1.7258    1.0000 </r>
       <r>    1.7258    1.0000 </r>
       <r>    1.7258    1.0000 </r>
       <r>    2.4639    0.0000 </r>
       <r>    3.6943    0.0000 </r>
       <r>    3.6943    0.0000 </r>
       <r>    4.7516    0.0000 </r>
      </set>
      <set comment="kpoint 2">
       <r>  -25.8392    1.0000 </r>
       <r>  -25.8212    1.0000 </r>
       <r>  -21.3264    1.0000 </r>
       <r>  -10.0358    1.0000 </r>
       <r>  -10.0278    1.0000 </r>
       <r>  -10.0278    1.0000 </r>
       <r>   -9.9422    1.0000 </r>
       <r>   -9.9422    1.0000 </r>
       <r>   -9.9339    1.0000 </r>
       <r>   -8.1440    1.0000 </r>
       <r>   -8.1345    1.0000 </r>
       <r>   -8.1345    1.0000 </r>
       <r>   -5.3103    1.0000 </r>
       <r>    1.4049    1.0000 </r>
       <r>    1.6805    1.0000 </r>
       <r>    1.6805    1.0000 </r>
       <r>    2.9645    0.0000 </r>
       <r>    3.8787    0.0000 </r>
       <r>    3.8787    0.0000 </r>
       <r>    4.5909    0.0000 </r>
      </set>
      <set comment="kpoint 3">
       <r>  -25.8370    1.0000 </r>
       <r>  -25.8232    1.0000 </r>
       <r>  -21.3271    1.0000 </r>
       <r>  -10.0415    1.0000 </r>
       <r>  -10.0239    1.0000 </r>
       <r>  -10.0239    1.0000 </r>
       <r>   -9.9533    1.0000 </r>
       <r>   -9.9533    1.0000 </r>
       <r>   -9.9368    1.0000 </r>
       <r>   -8.1524    1.0000 </r>
       <r>   -8.1251    1.0000 </r>
       <r>   -8.1251    1.0000 </r>
       <r>   -5.2494    1.0000 </r>
       <r>    1.0672    1.0000 </r>
       <r>    1.5933    1.0000 </r>
       <r>    1.5933    1.0000 </r>
       <r>    3.7114    0.0000 </r>
       <r>    4.3515    0.0000 </r>
       <r>    4.3515    0.0000 </r>
       <r>    4.4283    0.0000 </r>
      </set>
      <set comment="kpoint 4">
       <r>  -25.8336    1.0000 </r>
       <r>  -25.8262    1.0000 </r>
       <r>  -21.3279    1.0000 </r>
       <r>  -10.0340    1.0000 </r>
       <r>  -10.0177    1.0000 </r>
       <r>  -10.0177    1.0000 </r>
       <r>   -9.9667    1.0000 </r>
       <r>   -9.9667    1.0000 </r>
       <r>   -9.9551    1.0000 </r>
       <r>   -8.1549    1.0000 </r>
       <r>   -8.1157    1.0000 </r>
       <r>   -8.1157    1.0000 </r>
       <r>   -5.1963    1.0000 </r>
       <r>    0.8780    1.0000 </r>
       <r>    1.5276    1.0000 </r>
       <r>    1.5276    1.0000 </r>
       <r>    4.1062    0.0000 </r>
       <r>    4.7791    0.0000 </r>
       <r>    4.7792    0.0000 </r>
       <r>    4.8497    0.0000 </r>
      </set>
      <set comment="kpoint 5">
       <r>  -25.8299    1.0000 </r>
       <r>  -25.8298    1.0000 </r>
       <r>  -21.3282    1.0000 </r>
       <r>  -10.0247    1.0000 </r>
       <r>  -10.0137    1.0000 </r>
       <r>  -10.0137    1.0000 </r>
       <r>   -9.9737    1.0000 </r>
       <r>   -9.9737    1.0000 </r>
       <r>   -9.9695    1.0000 </r>
       <r>   -8.1545    1.0000 </r>
       <r>   -8.1118    1.0000 </r>
       <r>   -8.1118    1.0000 </r>
       <r>   -5.1762    1.0000 </r>
       <r>    0.8154    1.0000 </r>
       <r>    1.5049    1.0000 </r>
       <r>    1.5049    1.0000 </r>
       <r>    4.4074    0.0000 </r>
       <r>    4.7914    0.0000 </r>
       <r>    4.8354    0.0000 </r>
       <r>    4.8354    0.0000 </r>
      </set>
      <set comment="kpoint 6">
       <r>  -25.8390    1.0000 </r>
       <r>  -25.8214    1.0000 </r>
       <r>  -21.3265    1.0000 </r>
       <r>  -10.0433    1.0000 </r>
       <r>  -10.0433    1.0000 </r>
       <r>  -10.0071    1.0000 </r>
       <r>   -9.9588    1.0000 </r>
       <r>   -9.9297    1.0000 </r>
       <r>   -9.9297    1.0000 </r>
       <r>   -8.1518    1.0000 </r>
       <r>   -8.1303    1.0000 </r>
       <r>   -8.1303    1.0000 </r>
       <r>   -5.3022    1.0000 </r>
       <r>    1.2673    1.0000 </r>
       <r>    1.7414    1.0000 </r>
       <r>    1.7414    1.0000 </r>
       <r>    2.9904    0.0000 </r>
       <r>    3.7983    0.0000 </r>
       <r>    4.1019    0.0000 </r>
       <r>    4.4425    0.0000 </r>
      </set>
      <set comment="kpoint 7">
       <r>  -25.8373    1.0000 </r>
       <r>  -25.8228    1.0000 </r>
       <r>  -21.3271    1.0000 </r>
       <r>  -10.0547    1.0000 </r>
       <r>  -10.0525    1.0000 </r>
       <r>   -9.9889    1.0000 </r>
       <r>   -9.9800    1.0000 </r>
       <r>   -9.9276    1.0000 </r>
       <r>   -9.9255    1.0000 </r>
       <r>   -8.1607    1.0000 </r>
       <r>   -8.1231    1.0000 </r>
       <r>   -8.1208    1.0000 </r>
       <r>   -5.2561    1.0000 </r>
       <r>    1.0375    1.0000 </r>
       <r>    1.6595    1.0000 </r>
       <r>    1.7097    1.0000 </r>
       <r>    3.5156    0.0000 </r>
       <r>    4.0721    0.0000 </r>
       <r>    4.1903    0.0000 </r>
       <r>    4.5889    0.0000 </r>
      </set>
      <set comment="kpoint 8">
       <r>  -25.8345    1.0000 </r>
       <r>  -25.8254    1.0000 </r>
       <r>  -21.3278    1.0000 </r>
       <r>  -10.0561    1.0000 </r>
       <r>  -10.0523    1.0000 </r>
       <r>  -10.0091    1.0000 </r>
       <r>   -9.9648    1.0000 </r>
       <r>   -9.9361    1.0000 </r>
       <r>   -9.9350    1.0000 </r>
       <r>   -8.1592    1.0000 </r>
       <r>   -8.1180    1.0000 </r>
       <r>   -8.1116    1.0000 </r>
       <r>   -5.2062    1.0000 </r>
       <r>    0.9251    1.0000 </r>
       <r>    1.5261    1.0000 </r>
       <r>    1.6274    1.0000 </r>
       <r>    3.9354    0.0000 </r>
       <r>    4.4134    0.0000 </r>
       <r>    4.5597    0.0000 </r>
       <r>    4.8484    0.0000 </r>
      </set>
      <set comment="kpoint 9">
       <r>  -25.8311    1.0000 </r>
       <r>  -25.8286    1.0000 </r>
       <r>  -21.3283    1.0000 </r>
       <r>  -10.0562    1.0000 </r>
       <r>  -10.0410    1.0000 </r>
       <r>  -10.0193    1.0000 </r>
       <r>   -9.9618    1.0000 </r>
       <r>   -9.9491    1.0000 </r>
       <r>   -9.9420    1.0000 </r>
       <r>   -8.1518    1.0000 </r>
       <r>   -8.1166    1.0000 </r>
       <r>   -8.1080    1.0000 </r>
       <r>   -5.1791    1.0000 </r>
       <r>    0.8916    1.0000 </r>
       <r>    1.4646    1.0000 </r>
       <r>    1.5491    1.0000 </r>
       <r>    4.1955    0.0000 </r>
       <r>    4.6736    0.0000 </r>
       <r>    4.8092    0.0000 </r>
       <r>    4.9557    0.0000 </r>
      </set>
      <set comment="kpoint 10">
       <r>  -25.8321    1.0000 </r>
       <r>  -25.8276    1.0000 </r>
       <r>  -21.3282    1.0000 </r>
       <r>  -10.0648    1.0000 </r>
       <r>  -10.0202    1.0000 </r>
       <r>  -10.0125    1.0000 </r>
       <r>   -9.9766    1.0000 </r>
       <r>   -9.9669    1.0000 </r>
       <r>   -9.9252    1.0000 </r>
       <r>   -8.1501    1.0000 </r>
       <r>   -8.1167    1.0000 </r>
       <r>   -8.1121    1.0000 </r>
       <r>   -5.1845    1.0000 </r>
       <r>    0.9042    1.0000 </r>
       <r>    1.5039    1.0000 </r>
       <r>    1.5149    1.0000 </r>
       <r>    4.1804    0.0000 </r>
       <r>    4.5620    0.0000 </r>
       <r>    4.7818    0.0000 </r>
       <r>    4.8867    0.0000 </r>
      </set>
      <set comment="kpoint 11">
       <r>  -25.8354    1.0000 </r>
       <r>  -25.8245    1.0000 </r>
       <r>  -21.3276    1.0000 </r>
       <r>  -10.0652    1.0000 </r>
       <r>  -10.0231    1.0000 </r>
       <r>   -9.9977    1.0000 </r>
       <r>   -9.9823    1.0000 </r>
       <r>   -9.9610    1.0000 </r>
       <r>   -9.9169    1.0000 </r>
       <r>   -8.1536    1.0000 </r>
       <r>   -8.1216    1.0000 </r>
       <r>   -8.1187    1.0000 </r>
       <r>   -5.2208    1.0000 </r>
       <r>    0.9764    1.0000 </r>
       <r>    1.5109    1.0000 </r>
       <r>    1.6419    1.0000 </r>
       <r>    3.8699    0.0000 </r>
       <r>    4.3128    0.0000 </r>
       <r>    4.5461    0.0000 </r>
       <r>    4.7287    0.0000 </r>
      </set>
      <set comment="kpoint 12">
       <r>  -25.8380    1.0000 </r>
       <r>  -25.8223    1.0000 </r>
       <r>  -21.3269    1.0000 </r>
       <r>  -10.0527    1.0000 </r>
       <r>  -10.0304    1.0000 </r>
       <r>  -10.0093    1.0000 </r>
       <r>   -9.9635    1.0000 </r>
       <r>   -9.9442    1.0000 </r>
       <r>   -9.9227    1.0000 </r>
       <r>   -8.1513    1.0000 </r>
       <r>   -8.1309    1.0000 </r>
       <r>   -8.1255    1.0000 </r>
       <r>   -5.2733    1.0000 </r>
       <r>    1.1565    1.0000 </r>
       <r>    1.5785    1.0000 </r>
       <r>    1.7323    1.0000 </r>
       <r>    3.3695    0.0000 </r>
       <r>    4.0827    0.0000 </r>
       <r>    4.2751    0.0000 </r>
       <r>    4.3776    0.0000 </r>
      </set>
      <set comment="kpoint 13">
       <r>  -25.8365    1.0000 </r>
       <r>  -25.8235    1.0000 </r>
       <r>  -21.3275    1.0000 </r>
       <r>  -10.0740    1.0000 </r>
       <r>  -10.0740    1.0000 </r>
       <r>  -10.0093    1.0000 </r>
       <r>   -9.9538    1.0000 </r>
       <r>   -9.9131    1.0000 </r>
       <r>   -9.9131    1.0000 </r>
       <r>   -8.1774    1.0000 </r>
       <r>   -8.1114    1.0000 </r>
       <r>   -8.1114    1.0000 </r>
       <r>   -5.2351    1.0000 </r>
       <r>    0.9140    1.0000 </r>
       <r>    1.7764    1.0000 </r>
       <r>    1.7764    1.0000 </r>
       <r>    3.6098    0.0000 </r>
       <r>    3.8272    0.0000 </r>
       <r>    4.1087    0.0000 </r>
       <r>    4.9569    0.0000 </r>
      </set>
      <set comment="kpoint 14">
       <r>  -25.8346    1.0000 </r>
       <r>  -25.8252    1.0000 </r>
       <r>  -21.3281    1.0000 </r>
       <r>  -10.0855    1.0000 </r>
       <r>  -10.0833    1.0000 </r>
       <r>  -10.0338    1.0000 </r>
       <r>   -9.9276    1.0000 </r>
       <r>   -9.9133    1.0000 </r>
       <r>   -9.9107    1.0000 </r>
       <r>   -8.1800    1.0000 </r>
       <r>   -8.1053    1.0000 </r>
       <r>   -8.1023    1.0000 </r>
       <r>   -5.2049    1.0000 </r>
       <r>    0.9072    1.0000 </r>
       <r>    1.6831    1.0000 </r>
       <r>    1.7476    1.0000 </r>
       <r>    3.6581    0.0000 </r>
       <r>    4.0167    0.0000 </r>
       <r>    4.4504    0.0000 </r>
       <r>    4.8909    0.0000 </r>
      </set>
      <set comment="kpoint 15">
       <r>  -25.8320    1.0000 </r>
       <r>  -25.8275    1.0000 </r>
       <r>  -21.3285    1.0000 </r>
       <r>  -10.0951    1.0000 </r>
       <r>  -10.0774    1.0000 </r>
       <r>  -10.0366    1.0000 </r>
       <r>   -9.9354    1.0000 </r>
       <r>   -9.9193    1.0000 </r>
       <r>   -9.9061    1.0000 </r>
       <r>   -8.1650    1.0000 </r>
       <r>   -8.1098    1.0000 </r>
       <r>   -8.0989    1.0000 </r>
       <r>   -5.1840    1.0000 </r>
       <r>    1.0122    1.0000 </r>
       <r>    1.4743    1.0000 </r>
       <r>    1.6586    1.0000 </r>
       <r>    3.8081    0.0000 </r>
       <r>    4.3057    0.0000 </r>
       <r>    4.8047    0.0000 </r>
       <r>    4.8586    0.0000 </r>
      </set>
      <set comment="kpoint 16">
       <r>  -25.8303    1.0000 </r>
       <r>  -25.8292    1.0000 </r>
       <r>  -21.3286    1.0000 </r>
       <r>  -10.0998    1.0000 </r>
       <r>  -10.0567    1.0000 </r>
       <r>  -10.0164    1.0000 </r>
       <r>   -9.9687    1.0000 </r>
       <r>   -9.9371    1.0000 </r>
       <r>   -9.8953    1.0000 </r>
       <r>   -8.1432    1.0000 </r>
       <r>   -8.1238    1.0000 </r>
       <r>   -8.1030    1.0000 </r>
       <r>   -5.1795    1.0000 </r>
       <r>    1.0847    1.0000 </r>
       <r>    1.3772    1.0000 </r>
       <r>    1.5627    1.0000 </r>
       <r>    4.1367    0.0000 </r>
       <r>    4.2464    0.0000 </r>
       <r>    4.8016    0.0000 </r>
       <r>    4.8249    0.0000 </r>
      </set>
      <set comment="kpoint 17">
       <r>  -25.8331    1.0000 </r>
       <r>  -25.8266    1.0000 </r>
       <r>  -21.3282    1.0000 </r>
       <r>  -10.0896    1.0000 </r>
       <r>  -10.0254    1.0000 </r>
       <r>  -10.0020    1.0000 </r>
       <r>   -9.9872    1.0000 </r>
       <r>   -9.9615    1.0000 </r>
       <r>   -9.8980    1.0000 </r>
       <r>   -8.1439    1.0000 </r>
       <r>   -8.1234    1.0000 </r>
       <r>   -8.1124    1.0000 </r>
       <r>   -5.1927    1.0000 </r>
       <r>    0.9987    1.0000 </r>
       <r>    1.5028    1.0000 </r>
       <r>    1.5292    1.0000 </r>
       <r>    4.0795    0.0000 </r>
       <r>    4.3703    0.0000 </r>
       <r>    4.5203    0.0000 </r>
       <r>    4.7377    0.0000 </r>
      </set>
      <set comment="kpoint 18">
       <r>  -25.8339    1.0000 </r>
       <r>  -25.8257    1.0000 </r>
       <r>  -21.3285    1.0000 </r>
       <r>  -10.1019    1.0000 </r>
       <r>  -10.1019    1.0000 </r>
       <r>  -10.0599    1.0000 </r>
       <r>   -9.8994    1.0000 </r>
       <r>   -9.8986    1.0000 </r>
       <r>   -9.8986    1.0000 </r>
       <r>   -8.1948    1.0000 </r>
       <r>   -8.0934    1.0000 </r>
       <r>   -8.0933    1.0000 </r>
       <r>   -5.1960    1.0000 </r>
       <r>    0.9270    1.0000 </r>
       <r>    1.8077    1.0000 </r>
       <r>    1.8077    1.0000 </r>
       <r>    3.3234    0.0000 </r>
       <r>    3.9397    0.0000 </r>
       <r>    4.6195    0.0000 </r>
       <r>    4.8222    0.0000 </r>
      </set>
      <set comment="kpoint 19">
       <r>  -25.8326    1.0000 </r>
       <r>  -25.8268    1.0000 </r>
       <r>  -21.3288    1.0000 </r>
       <r>  -10.1128    1.0000 </r>
       <r>  -10.1035    1.0000 </r>
       <r>  -10.0640    1.0000 </r>
       <r>   -9.9056    1.0000 </r>
       <r>   -9.8997    1.0000 </r>
       <r>   -9.8839    1.0000 </r>
       <r>   -8.1891    1.0000 </r>
       <r>   -8.0933    1.0000 </r>
       <r>   -8.0898    1.0000 </r>
       <r>   -5.1870    1.0000 </r>
       <r>    1.0322    1.0000 </r>
       <r>    1.6769    1.0000 </r>
       <r>    1.7719    1.0000 </r>
       <r>    3.3677    0.0000 </r>
       <r>    3.8844    0.0000 </r>
       <r>    4.9262    0.0000 </r>
       <r>    4.9513    0.0000 </r>
      </set>
      <set comment="kpoint 20">
       <r>  -25.8310    1.0000 </r>
       <r>  -25.8284    1.0000 </r>
       <r>  -21.3288    1.0000 </r>
       <r>  -10.1168    1.0000 </r>
       <r>  -10.0873    1.0000 </r>
       <r>  -10.0427    1.0000 </r>
       <r>   -9.9339    1.0000 </r>
       <r>   -9.9131    1.0000 </r>
       <r>   -9.8817    1.0000 </r>
       <r>   -8.1664    1.0000 </r>
       <r>   -8.1066    1.0000 </r>
       <r>   -8.0938    1.0000 </r>
       <r>   -5.1810    1.0000 </r>
       <r>    1.1751    1.0000 </r>
       <r>    1.3945    1.0000 </r>
       <r>    1.6708    1.0000 </r>
       <r>    3.7236    0.0000 </r>
       <r>    3.9921    0.0000 </r>
       <r>    4.9122    0.0000 </r>
       <r>    5.1617    0.0000 </r>
      </set>
      <set comment="kpoint 21">
       <r>  -25.8328    1.0000 </r>
       <r>  -25.8265    1.0000 </r>
       <r>  -21.3289    1.0000 </r>
       <r>  -10.1129    1.0000 </r>
       <r>  -10.1129    1.0000 </r>
       <r>  -10.0809    1.0000 </r>
       <r>   -9.8929    1.0000 </r>
       <r>   -9.8929    1.0000 </r>
       <r>   -9.8766    1.0000 </r>
       <r>   -8.1998    1.0000 </r>
       <r>   -8.0861    1.0000 </r>
       <r>   -8.0861    1.0000 </r>
       <r>   -5.1880    1.0000 </r>
       <r>    1.0326    1.0000 </r>
       <r>    1.8196    1.0000 </r>
       <r>    1.8196    1.0000 </r>
       <r>    3.1361    0.0000 </r>
       <r>    3.7281    0.0000 </r>
       <r>    4.9355    0.0000 </r>
       <r>    5.2312    0.0000 </r>
      </set>
      <set comment="kpoint 22">
       <r>  -25.8355    1.0000 </r>
       <r>  -25.8244    1.0000 </r>
       <r>  -21.3277    1.0000 </r>
       <r>  -10.0783    1.0000 </r>
       <r>  -10.0498    1.0000 </r>
       <r>  -10.0094    1.0000 </r>
       <r>   -9.9601    1.0000 </r>
       <r>   -9.9405    1.0000 </r>
       <r>   -9.9083    1.0000 </r>
       <r>   -8.1653    1.0000 </r>
       <r>   -8.1146    1.0000 </r>
       <r>   -8.1137    1.0000 </r>
       <r>   -5.2197    1.0000 </r>
       <r>    0.9437    1.0000 </r>
       <r>    1.6006    1.0000 </r>
       <r>    1.6986    1.0000 </r>
       <r>    3.8439    0.0000 </r>
       <r>    4.0008    0.0000 </r>
       <r>    4.3986    0.0000 </r>
       <r>    4.8902    0.0000 </r>
      </set>
      <set comment="kpoint 23">
       <r>  -25.8328    1.0000 </r>
       <r>  -25.8269    1.0000 </r>
       <r>  -21.3283    1.0000 </r>
       <r>  -10.0930    1.0000 </r>
       <r>  -10.0390    1.0000 </r>
       <r>  -10.0277    1.0000 </r>
       <r>   -9.9655    1.0000 </r>
       <r>   -9.9357    1.0000 </r>
       <r>   -9.9045    1.0000 </r>
       <r>   -8.1556    1.0000 </r>
       <r>   -8.1179    1.0000 </r>
       <r>   -8.1048    1.0000 </r>
       <r>   -5.1895    1.0000 </r>
       <r>    0.9749    1.0000 </r>
       <r>    1.5050    1.0000 </r>
       <r>    1.5885    1.0000 </r>
       <r>    4.0077    0.0000 </r>
       <r>    4.2999    0.0000 </r>
       <r>    4.6233    0.0000 </r>
       <r>    4.9343    0.0000 </r>
      </set>
      <set comment="kpoint 24">
       <r>  -25.8298    1.0000 </r>
       <r>  -25.8297    1.0000 </r>
       <r>  -21.3285    1.0000 </r>
       <r>  -10.0977    1.0000 </r>
       <r>  -10.0453    1.0000 </r>
       <r>  -10.0127    1.0000 </r>
       <r>   -9.9869    1.0000 </r>
       <r>   -9.9191    1.0000 </r>
       <r>   -9.9120    1.0000 </r>
       <r>   -8.1445    1.0000 </r>
       <r>   -8.1254    1.0000 </r>
       <r>   -8.1011    1.0000 </r>
       <r>   -5.1785    1.0000 </r>
       <r>    1.0245    1.0000 </r>
       <r>    1.4118    1.0000 </r>
       <r>    1.5621    1.0000 </r>
       <r>    4.2387    0.0000 </r>
       <r>    4.2606    0.0000 </r>
       <r>    4.7248    0.0000 </r>
       <r>    5.0557    0.0000 </r>
      </set>
      <set comment="kpoint 25">
       <r>  -25.8330    1.0000 </r>
       <r>  -25.8266    1.0000 </r>
       <r>  -21.3285    1.0000 </r>
       <r>  -10.1126    1.0000 </r>
       <r>  -10.0733    1.0000 </r>
       <r>  -10.0502    1.0000 </r>
       <r>   -9.9315    1.0000 </r>
       <r>   -9.9035    1.0000 </r>
       <r>   -9.8952    1.0000 </r>
       <r>   -8.1773    1.0000 </r>
       <r>   -8.1047    1.0000 </r>
       <r>   -8.0942    1.0000 </r>
       <r>   -5.1895    1.0000 </r>
       <r>    0.9896    1.0000 </r>
       <r>    1.6453    1.0000 </r>
       <r>    1.6707    1.0000 </r>
       <r>    3.6422    0.0000 </r>
       <r>    4.0563    0.0000 </r>
       <r>    4.7440    0.0000 </r>
       <r>    4.8347    0.0000 </r>
      </set>
      <set comment="kpoint 26">
       <r>  -25.8309    1.0000 </r>
       <r>  -25.8285    1.0000 </r>
       <r>  -21.3288    1.0000 </r>
       <r>  -10.1270    1.0000 </r>
       <r>  -10.0602    1.0000 </r>
       <r>  -10.0383    1.0000 </r>
       <r>   -9.9643    1.0000 </r>
       <r>   -9.8969    1.0000 </r>
       <r>   -9.8887    1.0000 </r>
       <r>   -8.1582    1.0000 </r>
       <r>   -8.1181    1.0000 </r>
       <r>   -8.0910    1.0000 </r>
       <r>   -5.1808    1.0000 </r>
       <r>    1.1538    1.0000 </r>
       <r>    1.4165    1.0000 </r>
       <r>    1.6204    1.0000 </r>
       <r>    3.8881    0.0000 </r>
       <r>    4.0537    0.0000 </r>
       <r>    4.6742    0.0000 </r>
       <r>    4.9889    0.0000 </r>
      </set>
      <set comment="kpoint 27">
       <r>  -25.8307    1.0000 </r>
       <r>  -25.8288    1.0000 </r>
       <r>  -21.3287    1.0000 </r>
       <r>  -10.1202    1.0000 </r>
       <r>  -10.0503    1.0000 </r>
       <r>  -10.0023    1.0000 </r>
       <r>  -10.0021    1.0000 </r>
       <r>   -9.9115    1.0000 </r>
       <r>   -9.8884    1.0000 </r>
       <r>   -8.1387    1.0000 </r>
       <r>   -8.1339    1.0000 </r>
       <r>   -8.0957    1.0000 </r>
       <r>   -5.1806    1.0000 </r>
       <r>    1.1523    1.0000 </r>
       <r>    1.3737    1.0000 </r>
       <r>    1.5707    1.0000 </r>
       <r>    4.0614    0.0000 </r>
       <r>    4.3457    0.0000 </r>
       <r>    4.3538    0.0000 </r>
       <r>    5.1044    0.0000 </r>
      </set>
      <set comment="kpoint 28">
       <r>  -25.8319    1.0000 </r>
       <r>  -25.8275    1.0000 </r>
       <r>  -21.3289    1.0000 </r>
       <r>  -10.1302    1.0000 </r>
       <r>  -10.0828    1.0000 </r>
       <r>  -10.0634    1.0000 </r>
       <r>   -9.9275    1.0000 </r>
       <r>   -9.8906    1.0000 </r>
       <r>   -9.8789    1.0000 </r>
       <r>   -8.1810    1.0000 </r>
       <r>   -8.1008    1.0000 </r>
       <r>   -8.0863    1.0000 </r>
       <r>   -5.1840    1.0000 </r>
       <r>    1.1040    1.0000 </r>
       <r>    1.6165    1.0000 </r>
       <r>    1.6908    1.0000 </r>
       <r>    3.5108    0.0000 </r>
       <r>    3.8277    0.0000 </r>
       <r>    4.9577    0.0000 </r>
       <r>    4.9781    0.0000 </r>
      </set>
      <set comment="kpoint 29">
       <r>  -25.8297    1.0000 </r>
       <r>  -25.8297    1.0000 </r>
       <r>  -21.3289    1.0000 </r>
       <r>  -10.1412    1.0000 </r>
       <r>  -10.0522    1.0000 </r>
       <r>  -10.0074    1.0000 </r>
       <r>  -10.0074    1.0000 </r>
       <r>   -9.8859    1.0000 </r>
       <r>   -9.8836    1.0000 </r>
       <r>   -8.1389    1.0000 </r>
       <r>   -8.1389    1.0000 </r>
       <r>   -8.0866    1.0000 </r>
       <r>   -5.1799    1.0000 </r>
       <r>    1.3111    1.0000 </r>
       <r>    1.3112    1.0000 </r>
       <r>    1.5794    1.0000 </r>
       <r>    3.9043    0.0000 </r>
       <r>    4.2764    0.0000 </r>
       <r>    4.2764    0.0000 </r>
       <r>    4.9648    0.0000 </r>
      </set>
     </set>
    </set>
   </array>
  </eigenvalues>
  <separator name="orbital magnetization" >
   <v name="MAGDIPOLOUT">      0.00000000      0.00000000      0.00000000</v>
  </separator>
  <dos>
   <i name="efermi">      2.12084547 </i>
   <total>
    <array>
     <dimension dim="1">gridpoints</dimension>
     <dimension dim="2">spin</dimension>
     <field>energy</field>
     <field>total</field>
     <field>integrated</field>
     <set>
      <set comment="spin 1">
       <r>   -27.3936     0.0000     0.0000 </r>
       <r>   -27.2797     0.0000     0.0000 </r>
       <r>   -27.1658     0.0000     0.0000 </r>
       <r>   -27.0518     0.0000     0.0000 </r>
       <r>   -26.9379     0.0000     0.0000 </r>
       <r>   -26.8240     0.0000     0.0000 </r>
       <r>   -26.7101     0.0000     0.0000 </r>
       <r>   -26.5961     0.0000     0.0000 </r>
       <r>   -26.4822     0.0000     0.0000 </r>
       <r>   -26.3683     0.0000     0.0000 </r>
       <r>   -26.2544     0.0000     0.0000 </r>
       <r>   -26.1404     0.0000     0.0000 </r>
       <r>   -26.0265     0.0000     0.0000 </r>
       <r>   -25.9126     0.3523     0.0401 </r>
       <r>   -25.7986    28.0802     3.2393 </r>
       <r>   -25.6847     6.6766     3.9999 </r>
       <r>   -25.5708     0.0008     4.0000 </r>
       <r>   -25.4569     0.0000     4.0000 </r>
       <r>   -25.3429     0.0000     4.0000 </r>
       <r>   -25.2290     0.0000     4.0000 </r>
       <r>   -25.1151     0.0000     4.0000 </r>
       <r>   -25.0011     0.0000     4.0000 </r>
       <r>   -24.8872     0.0000     4.0000 </r>
       <r>   -24.7733     0.0000     4.0000 </r>
       <r>   -24.6594     0.0000     4.0000 </r>
       <r>   -24.5454     0.0000     4.0000 </r>
       <r>   -24.4315     0.0000     4.0000 </r>
       <r>   -24.3176     0.0000     4.0000 </r>
       <r>   -24.2036     0.0000     4.0000 </r>
       <r>   -24.0897     0.0000     4.0000 </r>
       <r>   -23.9758     0.0000     4.0000 </r>
       <r>   -23.8619     0.0000     4.0000 </r>
       <r>   -23.7479     0.0000     4.0000 </r>
       <r>   -23.6340     0.0000     4.0000 </r>
       <r>   -23.5201     0.0000     4.0000 </r>
       <r>   -23.4062     0.0000     4.0000 </r>
       <r>   -23.2922     0.0000     4.0000 </r>
       <r>   -23.1783     0.0000     4.0000 </r>
       <r>   -23.0644     0.0000     4.0000 </r>
       <r>   -22.9504     0.0000     4.0000 </r>
       <r>   -22.8365     0.0000     4.0000 </r>
       <r>   -22.7226     0.0000     4.0000 </r>
       <r>   -22.6087     0.0000     4.0000 </r>
       <r>   -22.4947     0.0000     4.0000 </r>
       <r>   -22.3808     0.0000     4.0000 </r>
       <r>   -22.2669     0.0000     4.0000 </r>
       <r>   -22.1529     0.0000     4.0000 </r>
       <r>   -22.0390     0.0000     4.0000 </r>
       <r>   -21.9251     0.0000     4.0000 </r>
       <r>   -21.8112     0.0000     4.0000 </r>
       <r>   -21.6972     0.0000     4.0000 </r>
       <r>   -21.5833     0.0000     4.0000 </r>
       <r>   -21.4694     0.0006     4.0001 </r>
       <r>   -21.3554     3.8660     4.4405 </r>
       <r>   -21.2415    13.5631     5.9857 </r>
       <r>   -21.1276     0.1252     6.0000 </r>
       <r>   -21.0137     0.0000     6.0000 </r>
       <r>   -20.8997     0.0000     6.0000 </r>
       <r>   -20.7858     0.0000     6.0000 </r>
       <r>   -20.6719     0.0000     6.0000 </r>
       <r>   -20.5580     0.0000     6.0000 </r>
       <r>   -20.4440     0.0000     6.0000 </r>
       <r>   -20.3301     0.0000     6.0000 </r>
       <r>   -20.2162     0.0000     6.0000 </r>
       <r>   -20.1022     0.0000     6.0000 </r>
       <r>   -19.9883     0.0000     6.0000 </r>
       <r>   -19.8744     0.0000     6.0000 </r>
       <r>   -19.7605     0.0000     6.0000 </r>
       <r>   -19.6465     0.0000     6.0000 </r>
       <r>   -19.5326     0.0000     6.0000 </r>
       <r>   -19.4187     0.0000     6.0000 </r>
       <r>   -19.3047     0.0000     6.0000 </r>
       <r>   -19.1908     0.0000     6.0000 </r>
       <r>   -19.0769     0.0000     6.0000 </r>
       <r>   -18.9630     0.0000     6.0000 </r>
       <r>   -18.8490     0.0000     6.0000 </r>
       <r>   -18.7351     0.0000     6.0000 </r>
       <r>   -18.6212     0.0000     6.0000 </r>
       <r>   -18.5072     0.0000     6.0000 </r>
       <r>   -18.3933     0.0000     6.0000 </r>
       <r>   -18.2794     0.0000     6.0000 </r>
       <r>   -18.1655     0.0000     6.0000 </r>
       <r>   -18.0515     0.0000     6.0000 </r>
       <r>   -17.9376     0.0000     6.0000 </r>
       <r>   -17.8237     0.0000     6.0000 </r>
       <r>   -17.7097     0.0000     6.0000 </r>
       <r>   -17.5958     0.0000     6.0000 </r>
       <r>   -17.4819     0.0000     6.0000 </r>
       <r>   -17.3680     0.0000     6.0000 </r>
       <r>   -17.2540     0.0000     6.0000 </r>
       <r>   -17.1401     0.0000     6.0000 </r>
       <r>   -17.0262     0.0000     6.0000 </r>
       <r>   -16.9123     0.0000     6.0000 </r>
       <r>   -16.7983     0.0000     6.0000 </r>
       <r>   -16.6844     0.0000     6.0000 </r>
       <r>   -16.5705     0.0000     6.0000 </r>
       <r>   -16.4565     0.0000     6.0000 </r>
       <r>   -16.3426     0.0000     6.0000 </r>
       <r>   -16.2287     0.0000     6.0000 </r>
       <r>   -16.1148     0.0000     6.0000 </r>
       <r>   -16.0008     0.0000     6.0000 </r>
       <r>   -15.8869     0.0000     6.0000 </r>
       <r>   -15.7730     0.0000     6.0000 </r>
       <r>   -15.6590     0.0000     6.0000 </r>
       <r>   -15.5451     0.0000     6.0000 </r>
       <r>   -15.4312     0.0000     6.0000 </r>
       <r>   -15.3173     0.0000     6.0000 </r>
       <r>   -15.2033     0.0000     6.0000 </r>
       <r>   -15.0894     0.0000     6.0000 </r>
       <r>   -14.9755     0.0000     6.0000 </r>
       <r>   -14.8615     0.0000     6.0000 </r>
       <r>   -14.7476     0.0000     6.0000 </r>
       <r>   -14.6337     0.0000     6.0000 </r>
       <r>   -14.5198     0.0000     6.0000 </r>
       <r>   -14.4058     0.0000     6.0000 </r>
       <r>   -14.2919     0.0000     6.0000 </r>
       <r>   -14.1780     0.0000     6.0000 </r>
       <r>   -14.0641     0.0000     6.0000 </r>
       <r>   -13.9501     0.0000     6.0000 </r>
       <r>   -13.8362     0.0000     6.0000 </r>
       <r>   -13.7223     0.0000     6.0000 </r>
       <r>   -13.6083     0.0000     6.0000 </r>
       <r>   -13.4944     0.0000     6.0000 </r>
       <r>   -13.3805     0.0000     6.0000 </r>
       <r>   -13.2666     0.0000     6.0000 </r>
       <r>   -13.1526     0.0000     6.0000 </r>
       <r>   -13.0387     0.0000     6.0000 </r>
       <r>   -12.9248     0.0000     6.0000 </r>
       <r>   -12.8108     0.0000     6.0000 </r>
       <r>   -12.6969     0.0000     6.0000 </r>
       <r>   -12.5830     0.0000     6.0000 </r>
       <r>   -12.4691     0.0000     6.0000 </r>
       <r>   -12.3551     0.0000     6.0000 </r>
       <r>   -12.2412     0.0000     6.0000 </r>
       <r>   -12.1273     0.0000     6.0000 </r>
       <r>   -12.0133     0.0000     6.0000 </r>
       <r>   -11.8994     0.0000     6.0000 </r>
       <r>   -11.7855     0.0000     6.0000 </r>
       <r>   -11.6716     0.0000     6.0000 </r>
       <r>   -11.5576     0.0000     6.0000 </r>
       <r>   -11.4437     0.0000     6.0000 </r>
       <r>   -11.3298     0.0000     6.0000 </r>
       <r>   -11.2159     0.0000     6.0000 </r>
       <r>   -11.1019     0.0000     6.0000 </r>
       <r>   -10.9880     0.0000     6.0000 </r>
       <r>   -10.8741     0.0000     6.0000 </r>
       <r>   -10.7601     0.0000     6.0000 </r>
       <r>   -10.6462     0.0000     6.0000 </r>
       <r>   -10.5323     0.0000     6.0000 </r>
       <r>   -10.4184     0.0000     6.0000 </r>
       <r>   -10.3044     0.0000     6.0000 </r>
       <r>   -10.1905     0.1784     6.0203 </r>
       <r>   -10.0766    17.2690     7.9877 </r>
       <r>    -9.9626    47.3466    13.3818 </r>
       <r>    -9.8487    38.7209    17.7932 </r>
       <r>    -9.7348     1.8148    18.0000 </r>
       <r>    -9.6209     0.0001    18.0000 </r>
       <r>    -9.5069     0.0000    18.0000 </r>
       <r>    -9.3930     0.0000    18.0000 </r>
       <r>    -9.2791     0.0000    18.0000 </r>
       <r>    -9.1651     0.0000    18.0000 </r>
       <r>    -9.0512     0.0000    18.0000 </r>
       <r>    -8.9373     0.0000    18.0000 </r>
       <r>    -8.8234     0.0000    18.0000 </r>
       <r>    -8.7094     0.0000    18.0000 </r>
       <r>    -8.5955     0.0000    18.0000 </r>
       <r>    -8.4816     0.0000    18.0000 </r>
       <r>    -8.3677     0.0000    18.0000 </r>
       <r>    -8.2537     0.1258    18.0143 </r>
       <r>    -8.1398    19.7805    20.2679 </r>
       <r>    -8.0259    32.3420    23.9525 </r>
       <r>    -7.9119     0.4166    24.0000 </r>
       <r>    -7.7980     0.0000    24.0000 </r>
       <r>    -7.6841     0.0000    24.0000 </r>
       <r>    -7.5702     0.0000    24.0000 </r>
       <r>    -7.4562     0.0000    24.0000 </r>
       <r>    -7.3423     0.0000    24.0000 </r>
       <r>    -7.2284     0.0000    24.0000 </r>
       <r>    -7.1144     0.0000    24.0000 </r>
       <r>    -7.0005     0.0000    24.0000 </r>
       <r>    -6.8866     0.0000    24.0000 </r>
       <r>    -6.7727     0.0000    24.0000 </r>
       <r>    -6.6587     0.0000    24.0000 </r>
       <r>    -6.5448     0.0000    24.0000 </r>
       <r>    -6.4309     0.0000    24.0000 </r>
       <r>    -6.3169     0.0000    24.0000 </r>
       <r>    -6.2030     0.0000    24.0000 </r>
       <r>    -6.0891     0.0000    24.0000 </r>
       <r>    -5.9752     0.0000    24.0000 </r>
       <r>    -5.8612     0.0000    24.0000 </r>
       <r>    -5.7473     0.0000    24.0000 </r>
       <r>    -5.6334     0.0000    24.0000 </r>
       <r>    -5.5195     0.0000    24.0000 </r>
       <r>    -5.4055     0.0023    24.0003 </r>
       <r>    -5.2916     0.7099    24.0811 </r>
       <r>    -5.1777    11.1317    25.3494 </r>
       <r>    -5.0637     5.7066    25.9995 </r>
       <r>    -4.9498     0.0044    26.0000 </r>
       <r>    -4.8359     0.0000    26.0000 </r>
       <r>    -4.7220     0.0000    26.0000 </r>
       <r>    -4.6080     0.0000    26.0000 </r>
       <r>    -4.4941     0.0000    26.0000 </r>
       <r>    -4.3802     0.0000    26.0000 </r>
       <r>    -4.2662     0.0000    26.0000 </r>
       <r>    -4.1523     0.0000    26.0000 </r>
       <r>    -4.0384     0.0000    26.0000 </r>
       <r>    -3.9245     0.0000    26.0000 </r>
       <r>    -3.8105     0.0000    26.0000 </r>
       <r>    -3.6966     0.0000    26.0000 </r>
       <r>    -3.5827     0.0000    26.0000 </r>
       <r>    -3.4687     0.0000    26.0000 </r>
       <r>    -3.3548     0.0000    26.0000 </r>
       <r>    -3.2409     0.0000    26.0000 </r>
       <r>    -3.1270     0.0000    26.0000 </r>
       <r>    -3.0130     0.0000    26.0000 </r>
       <r>    -2.8991     0.0000    26.0000 </r>
       <r>    -2.7852     0.0000    26.0000 </r>
       <r>    -2.6713     0.0000    26.0000 </r>
       <r>    -2.5573     0.0000    26.0000 </r>
       <r>    -2.4434     0.0000    26.0000 </r>
       <r>    -2.3295     0.0000    26.0000 </r>
       <r>    -2.2155     0.0000    26.0000 </r>
       <r>    -2.1016     0.0000    26.0000 </r>
       <r>    -1.9877     0.0000    26.0000 </r>
       <r>    -1.8738     0.0000    26.0000 </r>
       <r>    -1.7598     0.0000    26.0000 </r>
       <r>    -1.6459     0.0000    26.0000 </r>
       <r>    -1.5320     0.0000    26.0000 </r>
       <r>    -1.4180     0.0000    26.0000 </r>
       <r>    -1.3041     0.0000    26.0000 </r>
       <r>    -1.1902     0.0000    26.0000 </r>
       <r>    -1.0763     0.0000    26.0000 </r>
       <r>    -0.9623     0.0000    26.0000 </r>
       <r>    -0.8484     0.0000    26.0000 </r>
       <r>    -0.7345     0.0000    26.0000 </r>
       <r>    -0.6205     0.0000    26.0000 </r>
       <r>    -0.5066     0.0000    26.0000 </r>
       <r>    -0.3927     0.0000    26.0000 </r>
       <r>    -0.2788     0.0000    26.0000 </r>
       <r>    -0.1648     0.0000    26.0000 </r>
       <r>    -0.0509     0.0000    26.0000 </r>
       <r>     0.0630     0.0000    26.0000 </r>
       <r>     0.1769     0.0000    26.0000 </r>
       <r>     0.2909     0.0000    26.0000 </r>
       <r>     0.4048     0.0000    26.0000 </r>
       <r>     0.5187     0.0000    26.0000 </r>
       <r>     0.6327     0.0000    26.0000 </r>
       <r>     0.7466     0.0036    26.0004 </r>
       <r>     0.8605     0.5835    26.0669 </r>
       <r>     0.9744     5.8914    26.7381 </r>
       <r>     1.0884     6.2700    27.4524 </r>
       <r>     1.2023     3.7563    27.8804 </r>
       <r>     1.3162     0.8394    27.9760 </r>
       <r>     1.4302     4.1554    28.4494 </r>
       <r>     1.5441     9.1168    29.4881 </r>
       <r>     1.6580    12.2741    30.8864 </r>
       <r>     1.7719     8.1906    31.8196 </r>
       <r>     1.8859     1.5710    31.9985 </r>
       <r>     1.9998     0.0128    32.0000 </r>
       <r>     2.1137     0.0000    32.0000 </r>
       <r>     2.2277     0.0000    32.0000 </r>
       <r>     2.3416     0.0000    32.0000 </r>
       <r>     2.4555     0.0139    32.0016 </r>
       <r>     2.5694     0.0203    32.0039 </r>
       <r>     2.6834     0.0000    32.0039 </r>
       <r>     2.7973     0.0000    32.0039 </r>
       <r>     2.9112     0.0207    32.0063 </r>
       <r>     3.0251     0.4141    32.0534 </r>
       <r>     3.1391     0.1001    32.0648 </r>
       <r>     3.2530     0.0534    32.0709 </r>
       <r>     3.3669     0.7756    32.1593 </r>
       <r>     3.4809     0.8739    32.2588 </r>
       <r>     3.5948     1.1792    32.3932 </r>
       <r>     3.7087     1.9502    32.6154 </r>
       <r>     3.8226     1.9899    32.8421 </r>
       <r>     3.9366     5.4493    33.4629 </r>
       <r>     4.0505     5.8563    34.1301 </r>
       <r>     4.1644     5.4101    34.7465 </r>
       <r>     4.2784     5.2439    35.3439 </r>
       <r>     4.3923     6.6030    36.0962 </r>
       <r>     4.5062     3.1904    36.4596 </r>
       <r>     4.6201     4.4048    36.9615 </r>
       <r>     4.7341     5.1612    37.5495 </r>
       <r>     4.8480     7.6685    38.4231 </r>
       <r>     4.9619     8.4771    39.3889 </r>
       <r>     5.0759     3.9543    39.8394 </r>
       <r>     5.1898     1.2247    39.9790 </r>
       <r>     5.3037     0.1826    39.9998 </r>
       <r>     5.4176     0.0021    40.0000 </r>
       <r>     5.5316     0.0000    40.0000 </r>
       <r>     5.6455     0.0000    40.0000 </r>
       <r>     5.7594     0.0000    40.0000 </r>
       <r>     5.8733     0.0000    40.0000 </r>
       <r>     5.9873     0.0000    40.0000 </r>
       <r>     6.1012     0.0000    40.0000 </r>
       <r>     6.2151     0.0000    40.0000 </r>
       <r>     6.3291     0.0000    40.0000 </r>
       <r>     6.4430     0.0000    40.0000 </r>
       <r>     6.5569     0.0000    40.0000 </r>
       <r>     6.6708     0.0000    40.0000 </r>
       <r>     6.7848     0.0000    40.0000 </r>
      </set>
     </set>
    </array>
   </total>
  </dos>
 </calculation>
 <structure name="finalpos" >
  <crystal>
   <varray name="basis" >
    <v>       0.00000000       4.52693957       4.52693957 </v>
    <v>       4.52693957       0.00000000       4.52693957 </v>
    <v>       4.52693957       4.52693957       0.00000000 </v>
   </varray>
   <i name="volume">    185.54279244 </i>
   <varray name="rec_basis" >
    <v>      -0.11044989       0.11044989       0.11044989 </v>
    <v>       0.11044989      -0.11044989       0.11044989 </v>
    <v>       0.11044989       0.11044989      -0.11044989 </v>
   </varray>
  </crystal>
  <varray name="positions" >
   <v>       0.24999934       0.24999934       0.24999934 </v>
   <v>       0.00000000       0.00000000       0.00000000 </v>
   <v>       0.49999978       0.49999978       0.49999978 </v>
   <v>       0.75000022       0.75000022       0.75000022 </v>
  </varray>
 </structure>
</modeling>
