   4   4   0   0
  0.4433916E+02  0.6306487E-09  0.6306487E-09  0.6306487E-09  0.5000000E-15
  1.000000000000000E-004
  CAR 
 unknown system                          
      7.18693539    -30.97411154  301      1.97026468      1.00000000
    -30.974  0.0000E+00  0.0000E+00
    -30.847  0.0000E+00  0.0000E+00
    -30.720  0.0000E+00  0.0000E+00
    -30.593  0.0000E+00  0.0000E+00
    -30.465  0.0000E+00  0.0000E+00
    -30.338  0.0000E+00  0.0000E+00
    -30.211  0.0000E+00  0.0000E+00
    -30.084  0.0000E+00  0.0000E+00
    -29.956  0.0000E+00  0.0000E+00
    -29.829  0.0000E+00  0.0000E+00
    -29.702  0.0000E+00  0.0000E+00
    -29.575  0.0000E+00  0.0000E+00
    -29.448  0.2995E-07  0.3810E-08
    -29.320  0.2492E+00  0.3170E-01
    -29.193  0.2746E+02  0.3525E+01
    -29.066  0.3735E+01  0.4000E+01
    -28.939  0.2833E-04  0.4000E+01
    -28.812  0.0000E+00  0.4000E+01
    -28.684  0.0000E+00  0.4000E+01
    -28.557  0.0000E+00  0.4000E+01
    -28.430  0.0000E+00  0.4000E+01
    -28.303  0.0000E+00  0.4000E+01
    -28.176  0.0000E+00  0.4000E+01
    -28.048  0.0000E+00  0.4000E+01
    -27.921  0.0000E+00  0.4000E+01
    -27.794  0.0000E+00  0.4000E+01
    -27.667  0.0000E+00  0.4000E+01
    -27.540  0.0000E+00  0.4000E+01
    -27.412  0.0000E+00  0.4000E+01
    -27.285  0.0000E+00  0.4000E+01
    -27.158  0.0000E+00  0.4000E+01
    -27.031  0.0000E+00  0.4000E+01
    -26.904  0.0000E+00  0.4000E+01
    -26.776  0.0000E+00  0.4000E+01
    -26.649  0.0000E+00  0.4000E+01
    -26.522  0.0000E+00  0.4000E+01
    -26.395  0.0000E+00  0.4000E+01
    -26.268  0.0000E+00  0.4000E+01
    -26.140  0.0000E+00  0.4000E+01
    -26.013  0.0000E+00  0.4000E+01
    -25.886  0.0000E+00  0.4000E+01
    -25.759  0.0000E+00  0.4000E+01
    -25.632  0.0000E+00  0.4000E+01
    -25.504  0.0000E+00  0.4000E+01
    -25.377  0.0000E+00  0.4000E+01
    -25.250  0.0000E+00  0.4000E+01
    -25.123  0.0000E+00  0.4000E+01
    -24.996  0.0000E+00  0.4000E+01
    -24.868  0.0000E+00  0.4000E+01
    -24.741  0.0000E+00  0.4000E+01
    -24.614  0.0000E+00  0.4000E+01
    -24.487  0.0000E+00  0.4000E+01
    -24.360  0.0000E+00  0.4000E+01
    -24.232  0.0000E+00  0.4000E+01
    -24.105  0.0000E+00  0.4000E+01
    -23.978  0.0000E+00  0.4000E+01
    -23.851  0.0000E+00  0.4000E+01
    -23.724  0.0000E+00  0.4000E+01
    -23.596  0.0000E+00  0.4000E+01
    -23.469  0.0000E+00  0.4000E+01
    -23.342  0.0000E+00  0.4000E+01
    -23.215  0.0000E+00  0.4000E+01
    -23.087  0.0000E+00  0.4000E+01
    -22.960  0.0000E+00  0.4000E+01
    -22.833  0.0000E+00  0.4000E+01
    -22.706  0.0000E+00  0.4000E+01
    -22.579  0.0000E+00  0.4000E+01
    -22.451  0.0000E+00  0.4000E+01
    -22.324  0.0000E+00  0.4000E+01
    -22.197  0.0000E+00  0.4000E+01
    -22.070  0.0000E+00  0.4000E+01
    -21.943  0.0000E+00  0.4000E+01
    -21.815  0.0000E+00  0.4000E+01
    -21.688  0.0000E+00  0.4000E+01
    -21.561  0.0000E+00  0.4000E+01
    -21.434  0.0000E+00  0.4000E+01
    -21.307  0.6897E-05  0.4000E+01
    -21.179  0.1470E+01  0.4187E+01
    -21.052  0.1407E+02  0.5977E+01
    -20.925  0.1786E+00  0.6000E+01
    -20.798  0.3304E-07  0.6000E+01
    -20.671  0.0000E+00  0.6000E+01
    -20.543  0.0000E+00  0.6000E+01
    -20.416  0.0000E+00  0.6000E+01
    -20.289  0.0000E+00  0.6000E+01
    -20.162  0.0000E+00  0.6000E+01
    -20.035  0.0000E+00  0.6000E+01
    -19.907  0.0000E+00  0.6000E+01
    -19.780  0.0000E+00  0.6000E+01
    -19.653  0.0000E+00  0.6000E+01
    -19.526  0.0000E+00  0.6000E+01
    -19.399  0.0000E+00  0.6000E+01
    -19.271  0.2091E-05  0.6000E+01
    -19.144  0.2541E+01  0.6323E+01
    -19.017  0.7289E+02  0.1559E+02
    -18.890  0.3186E+01  0.1600E+02
    -18.763  0.3722E-05  0.1600E+02
    -18.635  0.0000E+00  0.1600E+02
    -18.508  0.0000E+00  0.1600E+02
    -18.381  0.0000E+00  0.1600E+02
    -18.254  0.0000E+00  0.1600E+02
    -18.127  0.0000E+00  0.1600E+02
    -17.999  0.0000E+00  0.1600E+02
    -17.872  0.0000E+00  0.1600E+02
    -17.745  0.0000E+00  0.1600E+02
    -17.618  0.0000E+00  0.1600E+02
    -17.491  0.0000E+00  0.1600E+02
    -17.363  0.0000E+00  0.1600E+02
    -17.236  0.0000E+00  0.1600E+02
    -17.109  0.0000E+00  0.1600E+02
    -16.982  0.0000E+00  0.1600E+02
    -16.855  0.0000E+00  0.1600E+02
    -16.727  0.0000E+00  0.1600E+02
    -16.600  0.0000E+00  0.1600E+02
    -16.473  0.0000E+00  0.1600E+02
    -16.346  0.0000E+00  0.1600E+02
    -16.219  0.0000E+00  0.1600E+02
    -16.091  0.0000E+00  0.1600E+02
    -15.964  0.0000E+00  0.1600E+02
    -15.837  0.0000E+00  0.1600E+02
    -15.710  0.0000E+00  0.1600E+02
    -15.582  0.0000E+00  0.1600E+02
    -15.455  0.0000E+00  0.1600E+02
    -15.328  0.0000E+00  0.1600E+02
    -15.201  0.0000E+00  0.1600E+02
    -15.074  0.0000E+00  0.1600E+02
    -14.946  0.0000E+00  0.1600E+02
    -14.819  0.0000E+00  0.1600E+02
    -14.692  0.0000E+00  0.1600E+02
    -14.565  0.0000E+00  0.1600E+02
    -14.438  0.0000E+00  0.1600E+02
    -14.310  0.0000E+00  0.1600E+02
    -14.183  0.0000E+00  0.1600E+02
    -14.056  0.0000E+00  0.1600E+02
    -13.929  0.0000E+00  0.1600E+02
    -13.802  0.0000E+00  0.1600E+02
    -13.674  0.0000E+00  0.1600E+02
    -13.547  0.0000E+00  0.1600E+02
    -13.420  0.0000E+00  0.1600E+02
    -13.293  0.0000E+00  0.1600E+02
    -13.166  0.0000E+00  0.1600E+02
    -13.038  0.1578E-10  0.1600E+02
    -12.911  0.4709E-02  0.1600E+02
    -12.784  0.2068E+02  0.1863E+02
    -12.657  0.7221E+02  0.2782E+02
    -12.530  0.1443E+01  0.2800E+02
    -12.402  0.1810E-05  0.2800E+02
    -12.275  0.0000E+00  0.2800E+02
    -12.148  0.0000E+00  0.2800E+02
    -12.021  0.0000E+00  0.2800E+02
    -11.894  0.0000E+00  0.2800E+02
    -11.766  0.0000E+00  0.2800E+02
    -11.639  0.0000E+00  0.2800E+02
    -11.512  0.0000E+00  0.2800E+02
    -11.385  0.0000E+00  0.2800E+02
    -11.258  0.0000E+00  0.2800E+02
    -11.130  0.0000E+00  0.2800E+02
    -11.003  0.0000E+00  0.2800E+02
    -10.876  0.0000E+00  0.2800E+02
    -10.749  0.0000E+00  0.2800E+02
    -10.622  0.0000E+00  0.2800E+02
    -10.494  0.0000E+00  0.2800E+02
    -10.367  0.0000E+00  0.2800E+02
    -10.240  0.0000E+00  0.2800E+02
    -10.113  0.0000E+00  0.2800E+02
     -9.986  0.0000E+00  0.2800E+02
     -9.858  0.0000E+00  0.2800E+02
     -9.731  0.0000E+00  0.2800E+02
     -9.604  0.0000E+00  0.2800E+02
     -9.477  0.0000E+00  0.2800E+02
     -9.350  0.0000E+00  0.2800E+02
     -9.222  0.0000E+00  0.2800E+02
     -9.095  0.0000E+00  0.2800E+02
     -8.968  0.0000E+00  0.2800E+02
     -8.841  0.0000E+00  0.2800E+02
     -8.714  0.0000E+00  0.2800E+02
     -8.586  0.0000E+00  0.2800E+02
     -8.459  0.0000E+00  0.2800E+02
     -8.332  0.1120E-13  0.2800E+02
     -8.205  0.4171E-04  0.2800E+02
     -8.077  0.1967E+01  0.2825E+02
     -7.950  0.3867E+02  0.3317E+02
     -7.823  0.6534E+01  0.3400E+02
     -7.696  0.1666E-03  0.3400E+02
     -7.569  0.0000E+00  0.3400E+02
     -7.441  0.0000E+00  0.3400E+02
     -7.314  0.9922E-12  0.3400E+02
     -7.187  0.8144E-04  0.3400E+02
     -7.060  0.4234E+00  0.3405E+02
     -6.933  0.1275E+02  0.3568E+02
     -6.805  0.2554E+01  0.3600E+02
     -6.678  0.1836E-03  0.3600E+02
     -6.551  0.2140E-12  0.3600E+02
     -6.424  0.0000E+00  0.3600E+02
     -6.297  0.0000E+00  0.3600E+02
     -6.169  0.0000E+00  0.3600E+02
     -6.042  0.0000E+00  0.3600E+02
     -5.915  0.0000E+00  0.3600E+02
     -5.788  0.0000E+00  0.3600E+02
     -5.661  0.0000E+00  0.3600E+02
     -5.533  0.0000E+00  0.3600E+02
     -5.406  0.0000E+00  0.3600E+02
     -5.279  0.0000E+00  0.3600E+02
     -5.152  0.0000E+00  0.3600E+02
     -5.025  0.0000E+00  0.3600E+02
     -4.897  0.0000E+00  0.3600E+02
     -4.770  0.0000E+00  0.3600E+02
     -4.643  0.0000E+00  0.3600E+02
     -4.516  0.0000E+00  0.3600E+02
     -4.389  0.0000E+00  0.3600E+02
     -4.261  0.0000E+00  0.3600E+02
     -4.134  0.0000E+00  0.3600E+02
     -4.007  0.0000E+00  0.3600E+02
     -3.880  0.0000E+00  0.3600E+02
     -3.753  0.0000E+00  0.3600E+02
     -3.625  0.0000E+00  0.3600E+02
     -3.498  0.0000E+00  0.3600E+02
     -3.371  0.0000E+00  0.3600E+02
     -3.244  0.0000E+00  0.3600E+02
     -3.117  0.0000E+00  0.3600E+02
     -2.989  0.0000E+00  0.3600E+02
     -2.862  0.0000E+00  0.3600E+02
     -2.735  0.0000E+00  0.3600E+02
     -2.608  0.0000E+00  0.3600E+02
     -2.481  0.0000E+00  0.3600E+02
     -2.353  0.0000E+00  0.3600E+02
     -2.226  0.0000E+00  0.3600E+02
     -2.099  0.0000E+00  0.3600E+02
     -1.972  0.0000E+00  0.3600E+02
     -1.845  0.0000E+00  0.3600E+02
     -1.717  0.0000E+00  0.3600E+02
     -1.590  0.0000E+00  0.3600E+02
     -1.463  0.0000E+00  0.3600E+02
     -1.336  0.0000E+00  0.3600E+02
     -1.208  0.0000E+00  0.3600E+02
     -1.081  0.0000E+00  0.3600E+02
     -0.954  0.0000E+00  0.3600E+02
     -0.827  0.0000E+00  0.3600E+02
     -0.700  0.0000E+00  0.3600E+02
     -0.572  0.0000E+00  0.3600E+02
     -0.445  0.0000E+00  0.3600E+02
     -0.318  0.0000E+00  0.3600E+02
     -0.191  0.0000E+00  0.3600E+02
     -0.064  0.0000E+00  0.3600E+02
      0.064  0.0000E+00  0.3600E+02
      0.191  0.0000E+00  0.3600E+02
      0.318  0.1404E-12  0.3600E+02
      0.445  0.3875E-04  0.3600E+02
      0.572  0.8098E-01  0.3601E+02
      0.700  0.1573E+01  0.3621E+02
      0.827  0.5039E+01  0.3685E+02
      0.954  0.4878E+01  0.3747E+02
      1.081  0.3235E+01  0.3788E+02
      1.208  0.8855E+00  0.3800E+02
      1.336  0.4011E+01  0.3851E+02
      1.463  0.6399E+01  0.3932E+02
      1.590  0.1258E+02  0.4092E+02
      1.717  0.6240E+01  0.4171E+02
      1.844  0.2200E+01  0.4199E+02
      1.972  0.4582E-01  0.4200E+02
      2.099  0.9259E-02  0.4200E+02
      2.226  0.2142E-01  0.4200E+02
      2.353  0.3202E-04  0.4200E+02
      2.480  0.3995E-12  0.4200E+02
      2.608  0.2159E-04  0.4200E+02
      2.735  0.1497E+00  0.4202E+02
      2.862  0.2797E+00  0.4206E+02
      2.989  0.5480E-03  0.4206E+02
      3.116  0.9388E-01  0.4207E+02
      3.244  0.5580E+00  0.4214E+02
      3.371  0.1543E+01  0.4234E+02
      3.498  0.6877E+00  0.4243E+02
      3.625  0.1644E+01  0.4263E+02
      3.752  0.3326E+01  0.4306E+02
      3.880  0.3072E+01  0.4345E+02
      4.007  0.4673E+01  0.4404E+02
      4.134  0.3059E+01  0.4443E+02
      4.261  0.4158E+01  0.4496E+02
      4.388  0.7217E+01  0.4588E+02
      4.516  0.2814E+01  0.4624E+02
      4.643  0.3026E+01  0.4662E+02
      4.770  0.8618E+01  0.4772E+02
      4.897  0.6950E+01  0.4860E+02
      5.024  0.7115E+01  0.4951E+02
      5.152  0.3229E+01  0.4992E+02
      5.279  0.5557E+00  0.4999E+02
      5.406  0.9693E-02  0.4999E+02
      5.533  0.8232E-01  0.5000E+02
      5.660  0.1016E-02  0.5000E+02
      5.788  0.1807E-09  0.5000E+02
      5.915  0.0000E+00  0.5000E+02
      6.042  0.0000E+00  0.5000E+02
      6.169  0.0000E+00  0.5000E+02
      6.297  0.0000E+00  0.5000E+02
      6.424  0.0000E+00  0.5000E+02
      6.551  0.0000E+00  0.5000E+02
      6.678  0.0000E+00  0.5000E+02
      6.805  0.0000E+00  0.5000E+02
      6.933  0.0000E+00  0.5000E+02
      7.060  0.0000E+00  0.5000E+02
      7.187  0.0000E+00  0.5000E+02
