    4    4    1    1
  0.4433916E+02  0.6306487E-09  0.6306487E-09  0.6306487E-09  0.5000000E-15
  1.000000000000000E-004
  CAR 
 unknown system                          
     42     29     25
 
  0.0000000E+00  0.0000000E+00  0.0000000E+00  0.1953125E-02
    1      -29.239518   1.000000
    2      -29.230831   1.000000
    3      -21.131980   1.000000
    4      -19.080595   1.000000
    5      -19.080593   1.000000
    6      -19.080593   1.000000
    7      -19.076350   1.000000
    8      -19.076350   1.000000
    9      -12.770348   1.000000
   10      -12.770348   1.000000
   11      -12.770348   1.000000
   12      -12.723828   1.000000
   13      -12.723828   1.000000
   14      -12.723827   1.000000
   15       -7.981602   1.000000
   16       -7.981602   1.000000
   17       -7.981598   1.000000
   18       -7.083130   1.000000
   19        1.813318   0.999995
   20        1.813325   0.999995
   21        1.813325   0.999995
   22        2.117182   0.000016
   23        3.969330   0.000000
   24        3.969330   0.000000
   25        4.364931   0.000000
 
  0.1250000E+00  0.0000000E+00  0.0000000E+00  0.1562500E-01
    1      -29.239170   1.000000
    2      -29.231150   1.000000
    3      -21.132116   1.000000
    4      -19.080596   1.000000
    5      -19.080594   1.000000
    6      -19.080559   1.000000
    7      -19.076382   1.000000
    8      -19.076382   1.000000
    9      -12.770319   1.000000
   10      -12.768926   1.000000
   11      -12.768926   1.000000
   12      -12.725857   1.000000
   13      -12.725856   1.000000
   14      -12.724904   1.000000
   15       -7.998924   1.000000
   16       -7.980615   1.000000
   17       -7.980612   1.000000
   18       -7.054732   1.000000
   19        1.331419   1.000000
   20        1.744381   1.000000
   21        1.744387   1.000000
   22        2.740873   0.000000
   23        4.159744   0.000000
   24        4.159745   0.000000
   25        4.303535   0.000000
 
  0.2500000E+00  0.0000000E+00  0.0000000E+00  0.1562500E-01
    1      -29.238184   1.000000
    2      -29.232061   1.000000
    3      -21.132374   1.000000
    4      -19.080547   1.000000
    5      -19.080546   1.000000
    6      -19.080396   1.000000
    7      -19.076387   1.000000
    8      -19.076387   1.000000
    9      -12.768478   1.000000
   10      -12.764626   1.000000
   11      -12.764626   1.000000
   12      -12.731503   1.000000
   13      -12.731503   1.000000
   14      -12.729254   1.000000
   15       -8.033117   1.000000
   16       -7.978234   1.000000
   17       -7.978231   1.000000
   18       -6.995029   1.000000
   19        0.906633   1.000000
   20        1.606761   1.000000
   21        1.606768   1.000000
   22        3.432782   0.000000
   23        4.408745   0.000000
   24        4.559191   0.000000
   25        4.611319   0.000000
 
  0.3750000E+00  0.0000000E+00  0.0000000E+00  0.1562500E-01
    1      -29.236741   1.000000
    2      -29.233434   1.000000
    3      -21.132626   1.000000
    4      -19.080495   1.000000
    5      -19.080494   1.000000
    6      -19.080241   1.000000
    7      -19.076379   1.000000
    8      -19.076379   1.000000
    9      -12.762962   1.000000
   10      -12.757868   1.000000
   11      -12.757868   1.000000
   12      -12.739614   1.000000
   13      -12.739614   1.000000
   14      -12.737443   1.000000
   15       -8.058976   1.000000
   16       -7.975858   1.000000
   17       -7.975855   1.000000
   18       -6.945330   1.000000
   19        0.652115   1.000000
   20        1.495743   1.000000
   21        1.495750   1.000000
   22        3.825982   0.000000
   23        4.767904   0.000000
   24        4.767906   0.000000
   25        4.961288   0.000000
 
  0.5000000E+00  0.0000000E+00  0.0000000E+00  0.7812500E-02
    1      -29.235077   1.000000
    2      -29.235068   1.000000
    3      -21.132745   1.000000
    4      -19.080486   1.000000
    5      -19.080484   1.000000
    6      -19.080200   1.000000
    7      -19.076398   1.000000
    8      -19.076398   1.000000
    9      -12.757571   1.000000
   10      -12.750925   1.000000
   11      -12.750925   1.000000
   12      -12.747118   1.000000
   13      -12.747118   1.000000
   14      -12.744015   1.000000
   15       -8.067746   1.000000
   16       -7.974878   1.000000
   17       -7.974874   1.000000
   18       -6.927151   1.000000
   19        0.565995   1.000000
   20        1.455190   1.000000
   21        1.455196   1.000000
   22        4.053381   0.000000
   23        4.889467   0.000000
   24        4.889474   0.000000
   25        4.969125   0.000000
 
  0.1250000E+00  0.1250000E+00  0.0000000E+00  0.1171875E-01
    1      -29.239070   1.000000
    2      -29.231243   1.000000
    3      -21.132155   1.000000
    4      -19.080578   1.000000
    5      -19.080577   1.000000
    6      -19.080556   1.000000
    7      -19.076393   1.000000
    8      -19.076374   1.000000
    9      -12.773198   1.000000
   10      -12.773197   1.000000
   11      -12.761166   1.000000
   12      -12.733474   1.000000
   13      -12.722196   1.000000
   14      -12.722195   1.000000
   15       -8.002454   1.000000
   16       -7.980494   1.000000
   17       -7.980491   1.000000
   18       -7.048324   1.000000
   19        1.213842   1.000000
   20        1.791733   1.000000
   21        1.791738   1.000000
   22        2.760142   0.000000
   23        4.072753   0.000000
   24        4.116358   0.000000
   25        4.386977   0.000000
 
  0.2500000E+00  0.1250000E+00  0.0000000E+00  0.4687500E-01
    1      -29.238344   1.000000
    2      -29.231908   1.000000
    3      -21.132371   1.000000
    4      -19.080543   1.000000
    5      -19.080532   1.000000
    6      -19.080438   1.000000
    7      -19.076389   1.000000
    8      -19.076365   1.000000
    9      -12.774604   1.000000
   10      -12.774003   1.000000
   11      -12.751989   1.000000
   12      -12.743555   1.000000
   13      -12.722773   1.000000
   14      -12.722583   1.000000
   15       -8.025593   1.000000
   16       -7.979364   1.000000
   17       -7.978723   1.000000
   18       -7.006675   1.000000
   19        0.933858   1.000000
   20        1.655280   1.000000
   21        1.715308   1.000000
   22        3.285547   0.000000
   23        3.995331   0.000000
   24        4.346514   0.000000
   25        4.682642   0.000000
 
  0.3750000E+00  0.1250000E+00  0.0000000E+00  0.4687500E-01
    1      -29.237125   1.000000
    2      -29.233053   1.000000
    3      -21.132629   1.000000
    4      -19.080480   1.000000
    5      -19.080475   1.000000
    6      -19.080282   1.000000
    7      -19.076372   1.000000
    8      -19.076361   1.000000
    9      -12.772510   1.000000
   10      -12.770887   1.000000
   11      -12.754465   1.000000
   12      -12.741967   1.000000
   13      -12.727704   1.000000
   14      -12.727232   1.000000
   15       -8.046982   1.000000
   16       -7.978928   1.000000
   17       -7.976354   1.000000
   18       -6.962646   1.000000
   19        0.744620   1.000000
   20        1.477619   1.000000
   21        1.588972   1.000000
   22        3.716098   0.000000
   23        4.337436   0.000000
   24        4.806511   0.000000
   25        4.926919   0.000000
 
  0.5000000E+00  0.1250000E+00  0.0000000E+00  0.4687500E-01
    1      -29.235615   1.000000
    2      -29.234517   1.000000
    3      -21.132795   1.000000
    4      -19.080458   1.000000
    5      -19.080450   1.000000
    6      -19.080205   1.000000
    7      -19.076374   1.000000
    8      -19.076364   1.000000
    9      -12.770837   1.000000
   10      -12.764017   1.000000
   11      -12.759335   1.000000
   12      -12.736984   1.000000
   13      -12.734634   1.000000
   14      -12.732305   1.000000
   15       -8.056707   1.000000
   16       -7.979369   1.000000
   17       -7.974772   1.000000
   18       -6.938934   1.000000
   19        0.656628   1.000000
   20        1.399261   1.000000
   21        1.491461   1.000000
   22        4.025932   0.000000
   23        4.706220   0.000000
   24        4.898147   0.000000
   25        4.902071   0.000000
 
 -0.3750000E+00  0.1250000E+00  0.0000000E+00  0.4687500E-01
    1      -29.236090   1.000000
    2      -29.234052   1.000000
    3      -21.132752   1.000000
    4      -19.080476   1.000000
    5      -19.080437   1.000000
    6      -19.080216   1.000000
    7      -19.076383   1.000000
    8      -19.076353   1.000000
    9      -12.775722   1.000000
   10      -12.754378   1.000000
   11      -12.753094   1.000000
   12      -12.746113   1.000000
   13      -12.743655   1.000000
   14      -12.724405   1.000000
   15       -8.054905   1.000000
   16       -7.980127   1.000000
   17       -7.974892   1.000000
   18       -6.942354   1.000000
   19        0.673500   1.000000
   20        1.444908   1.000000
   21        1.459861   1.000000
   22        4.005883   0.000000
   23        4.690275   0.000000
   24        4.735418   0.000000
   25        4.922061   0.000000
 
 -0.2500000E+00  0.1250000E+00  0.0000000E+00  0.4687500E-01
    1      -29.237535   1.000000
    2      -29.232665   1.000000
    3      -21.132539   1.000000
    4      -19.080524   1.000000
    5      -19.080473   1.000000
    6      -19.080332   1.000000
    7      -19.076394   1.000000
    8      -19.076356   1.000000
    9      -12.777963   1.000000
   10      -12.758880   1.000000
   11      -12.753343   1.000000
   12      -12.743301   1.000000
   13      -12.739449   1.000000
   14      -12.720145   1.000000
   15       -8.041500   1.000000
   16       -7.980570   1.000000
   17       -7.976649   1.000000
   18       -6.972638   1.000000
   19        0.800798   1.000000
   20        1.505342   1.000000
   21        1.590462   1.000000
   22        3.673000   0.000000
   23        4.348904   0.000000
   24        4.538524   0.000000
   25        4.726061   0.000000
 
 -0.1250000E+00  0.1250000E+00  0.0000000E+00  0.2343750E-01
    1      -29.238624   1.000000
    2      -29.231649   1.000000
    3      -21.132280   1.000000
    4      -19.080578   1.000000
    5      -19.080542   1.000000
    6      -19.080483   1.000000
    7      -19.076399   1.000000
    8      -19.076370   1.000000
    9      -12.775544   1.000000
   10      -12.765440   1.000000
   11      -12.761986   1.000000
   12      -12.733323   1.000000
   13      -12.730934   1.000000
   14      -12.720677   1.000000
   15       -8.018253   1.000000
   16       -7.980563   1.000000
   17       -7.979020   1.000000
   18       -7.019617   1.000000
   19        1.044555   1.000000
   20        1.616959   1.000000
   21        1.740864   1.000000
   22        3.166763   0.000000
   23        4.189920   0.000000
   24        4.336229   0.000000
   25        4.424784   0.000000
 
  0.2500000E+00  0.2500000E+00  0.0000000E+00  0.1171875E-01
    1      -29.237989   1.000000
    2      -29.232228   1.000000
    3      -21.132537   1.000000
    4      -19.080488   1.000000
    5      -19.080486   1.000000
    6      -19.080434   1.000000
    7      -19.076377   1.000000
    8      -19.076352   1.000000
    9      -12.779916   1.000000
   10      -12.779916   1.000000
   11      -12.756655   1.000000
   12      -12.738817   1.000000
   13      -12.718299   1.000000
   14      -12.718299   1.000000
   15       -8.030078   1.000000
   16       -7.977836   1.000000
   17       -7.977833   1.000000
   18       -6.999047   1.000000
   19        0.837129   1.000000
   20        1.748826   1.000000
   21        1.748831   1.000000
   22        3.353894   0.000000
   23        3.631317   0.000000
   24        4.381107   0.000000
   25        4.869479   0.000000
 
  0.3750000E+00  0.2500000E+00  0.0000000E+00  0.4687500E-01
    1      -29.237177   1.000000
    2      -29.232974   1.000000
    3      -21.132760   1.000000
    4      -19.080430   1.000000
    5      -19.080425   1.000000
    6      -19.080312   1.000000
    7      -19.076335   1.000000
    8      -19.076329   1.000000
    9      -12.781951   1.000000
   10      -12.781104   1.000000
   11      -12.767976   1.000000
   12      -12.727379   1.000000
   13      -12.718958   1.000000
   14      -12.718473   1.000000
   15       -8.035446   1.000000
   16       -7.979168   1.000000
   17       -7.976088   1.000000
   18       -6.982018   1.000000
   19        0.803527   1.000000
   20        1.596398   1.000000
   21        1.684456   1.000000
   22        3.531813   0.000000
   23        3.812181   0.000000
   24        4.714855   0.000000
   25        5.050081   0.000000
 
  0.5000000E+00  0.2500000E+00  0.0000000E+00  0.4687500E-01
    1      -29.236062   1.000000
    2      -29.234042   1.000000
    3      -21.132925   1.000000
    4      -19.080399   1.000000
    5      -19.080372   1.000000
    6      -19.080227   1.000000
    7      -19.076345   1.000000
    8      -19.076305   1.000000
    9      -12.784899   1.000000
   10      -12.777055   1.000000
   11      -12.769924   1.000000
   12      -12.725707   1.000000
   13      -12.723027   1.000000
   14      -12.718479   1.000000
   15       -8.033664   1.000000
   16       -7.986698   1.000000
   17       -7.974516   1.000000
   18       -6.966634   1.000000
   19        0.850751   1.000000
   20        1.354886   1.000000
   21        1.579798   1.000000
   22        3.729715   0.000000
   23        4.429353   0.000000
   24        4.718424   0.000000
   25        4.965415   0.000000
 
 -0.3750000E+00  0.2500000E+00  0.0000000E+00  0.4687500E-01
    1      -29.235281   1.000000
    2      -29.234820   1.000000
    3      -21.132931   1.000000
    4      -19.080423   1.000000
    5      -19.080341   1.000000
    6      -19.080231   1.000000
    7      -19.076369   1.000000
    8      -19.076306   1.000000
    9      -12.788086   1.000000
   10      -12.768301   1.000000
   11      -12.761834   1.000000
   12      -12.736642   1.000000
   13      -12.731147   1.000000
   14      -12.713633   1.000000
   15       -8.032313   1.000000
   16       -7.992920   1.000000
   17       -7.974029   1.000000
   18       -6.957081   1.000000
   19        0.865574   1.000000
   20        1.272290   1.000000
   21        1.494712   1.000000
   22        4.132628   0.000000
   23        4.332239   0.000000
   24        4.817605   0.000000
   25        5.030495   0.000000
 
 -0.2500000E+00  0.2500000E+00  0.0000000E+00  0.2343750E-01
    1      -29.236514   1.000000
    2      -29.233630   1.000000
    3      -21.132769   1.000000
    4      -19.080474   1.000000
    5      -19.080380   1.000000
    6      -19.080275   1.000000
    7      -19.076381   1.000000
    8      -19.076328   1.000000
    9      -12.785835   1.000000
   10      -12.756341   1.000000
   11      -12.750611   1.000000
   12      -12.748623   1.000000
   13      -12.741677   1.000000
   14      -12.714021   1.000000
   15       -8.039218   1.000000
   16       -7.988048   1.000000
   17       -7.974910   1.000000
   18       -6.957685   1.000000
   19        0.797851   1.000000
   20        1.422759   1.000000
   21        1.464574   1.000000
   22        4.054987   0.000000
   23        4.463383   0.000000
   24        4.577278   0.000000
   25        4.629567   0.000000
 
  0.3750000E+00  0.3750000E+00  0.0000000E+00  0.1171875E-01
    1      -29.236899   1.000000
    2      -29.233210   1.000000
    3      -21.132937   1.000000
    4      -19.080371   1.000000
    5      -19.080370   1.000000
    6      -19.080264   1.000000
    7      -19.076321   1.000000
    8      -19.076294   1.000000
    9      -12.786555   1.000000
   10      -12.786555   1.000000
   11      -12.779736   1.000000
   12      -12.716284   1.000000
   13      -12.714426   1.000000
   14      -12.714426   1.000000
   15       -8.031015   1.000000
   16       -7.975216   1.000000
   17       -7.975214   1.000000
   18       -6.994108   1.000000
   19        0.845243   1.000000
   20        1.716396   1.000000
   21        1.716400   1.000000
   22        3.240707   0.000000
   23        3.721252   0.000000
   24        4.878180   0.000000
   25        4.886272   0.000000
 
  0.5000000E+00  0.3750000E+00  0.0000000E+00  0.4687500E-01
    1      -29.236353   1.000000
    2      -29.233729   1.000000
    3      -21.133062   1.000000
    4      -19.080361   1.000000
    5      -19.080331   1.000000
    6      -19.080228   1.000000
    7      -19.076312   1.000000
    8      -19.076255   1.000000
    9      -12.791409   1.000000
   10      -12.786074   1.000000
   11      -12.780866   1.000000
   12      -12.716440   1.000000
   13      -12.715460   1.000000
   14      -12.709816   1.000000
   15       -8.023418   1.000000
   16       -7.981236   1.000000
   17       -7.974253   1.000000
   18       -6.993644   1.000000
   19        0.939423   1.000000
   20        1.537179   1.000000
   21        1.668703   1.000000
   22        3.319651   0.000000
   23        3.877555   0.000000
   24        4.788931   0.000000
   25        5.171806   0.000000
 
 -0.3750000E+00  0.3750000E+00  0.0000000E+00  0.2343750E-01
    1      -29.235621   1.000000
    2      -29.234452   1.000000
    3      -21.133056   1.000000
    4      -19.080377   1.000000
    5      -19.080271   1.000000
    6      -19.080246   1.000000
    7      -19.076332   1.000000
    8      -19.076260   1.000000
    9      -12.793687   1.000000
   10      -12.779598   1.000000
   11      -12.772645   1.000000
   12      -12.724811   1.000000
   13      -12.721299   1.000000
   14      -12.708712   1.000000
   15       -8.010253   1.000000
   16       -8.001911   1.000000
   17       -7.973765   1.000000
   18       -6.978980   1.000000
   19        1.075005   1.000000
   20        1.197270   1.000000
   21        1.578303   1.000000
   22        3.665467   0.000000
   23        4.214977   0.000000
   24        4.870262   0.000000
   25        5.018879   0.000000
 
  0.5000000E+00  0.5000000E+00  0.0000000E+00  0.5859375E-02
    1      -29.236450   1.000000
    2      -29.233619   1.000000
    3      -21.133126   1.000000
    4      -19.080345   1.000000
    5      -19.080344   1.000000
    6      -19.080211   1.000000
    7      -19.076303   1.000000
    8      -19.076235   1.000000
    9      -12.789299   1.000000
   10      -12.789299   1.000000
   11      -12.789277   1.000000
   12      -12.712847   1.000000
   13      -12.712846   1.000000
   14      -12.706913   1.000000
   15       -8.023953   1.000000
   16       -7.974146   1.000000
   17       -7.974144   1.000000
   18       -7.004723   1.000000
   19        0.947478   1.000000
   20        1.705502   1.000000
   21        1.705507   1.000000
   22        3.096785   0.000000
   23        3.667528   0.000000
   24        4.792237   0.000000
   25        5.452342   0.000000
 
  0.3750000E+00  0.2500000E+00  0.1250000E+00  0.4687500E-01
    1      -29.237554   1.000000
    2      -29.232637   1.000000
    3      -21.132593   1.000000
    4      -19.080497   1.000000
    5      -19.080450   1.000000
    6      -19.080351   1.000000
    7      -19.076381   1.000000
    8      -19.076346   1.000000
    9      -12.781662   1.000000
   10      -12.769985   1.000000
   11      -12.755622   1.000000
   12      -12.740483   1.000000
   13      -12.728748   1.000000
   14      -12.717029   1.000000
   15       -8.036335   1.000000
   16       -7.980786   1.000000
   17       -7.977085   1.000000
   18       -6.980269   1.000000
   19        0.814969   1.000000
   20        1.567372   1.000000
   21        1.633472   1.000000
   22        3.663768   0.000000
   23        3.895569   0.000000
   24        4.625102   0.000000
   25        4.779824   0.000000
 
  0.5000000E+00  0.2500000E+00  0.1250000E+00  0.9375000E-01
    1      -29.236392   1.000000
    2      -29.233740   1.000000
    3      -21.132815   1.000000
    4      -19.080446   1.000000
    5      -19.080391   1.000000
    6      -19.080251   1.000000
    7      -19.076366   1.000000
    8      -19.076325   1.000000
    9      -12.784870   1.000000
   10      -12.766570   1.000000
   11      -12.761380   1.000000
   12      -12.738403   1.000000
   13      -12.729875   1.000000
   14      -12.716571   1.000000
   15       -8.039869   1.000000
   16       -7.984548   1.000000
   17       -7.975914   1.000000
   18       -6.959850   1.000000
   19        0.792437   1.000000
   20        1.416820   1.000000
   21        1.514654   1.000000
   22        3.926692   0.000000
   23        4.324098   0.000000
   24        4.654749   0.000000
   25        5.002631   0.000000
 
 -0.3750000E+00  0.2500000E+00  0.1250000E+00  0.4687500E-01
    1      -29.235056   1.000000
    2      -29.235051   1.000000
    3      -21.132910   1.000000
    4      -19.080422   1.000000
    5      -19.080377   1.000000
    6      -19.080212   1.000000
    7      -19.076365   1.000000
    8      -19.076314   1.000000
    9      -12.785157   1.000000
   10      -12.771060   1.000000
   11      -12.752248   1.000000
   12      -12.748292   1.000000
   13      -12.721993   1.000000
   14      -12.720672   1.000000
   15       -8.039424   1.000000
   16       -7.986821   1.000000
   17       -7.975496   1.000000
   18       -6.952941   1.000000
   19        0.804286   1.000000
   20        1.323923   1.000000
   21        1.483576   1.000000
   22        4.176622   0.000000
   23        4.328497   0.000000
   24        4.887403   0.000000
   25        4.900219   0.000000
 
  0.5000000E+00  0.3750000E+00  0.1250000E+00  0.4687500E-01
    1      -29.236480   1.000000
    2      -29.233625   1.000000
    3      -21.132947   1.000000
    4      -19.080393   1.000000
    5      -19.080361   1.000000
    6      -19.080260   1.000000
    7      -19.076340   1.000000
    8      -19.076294   1.000000
    9      -12.790515   1.000000
   10      -12.776051   1.000000
   11      -12.775830   1.000000
   12      -12.725539   1.000000
   13      -12.717472   1.000000
   14      -12.713378   1.000000
   15       -8.028898   1.000000
   16       -7.981090   1.000000
   17       -7.977866   1.000000
   18       -6.980465   1.000000
   19        0.875796   1.000000
   20        1.539552   1.000000
   21        1.555237   1.000000
   22        3.599362   0.000000
   23        3.989293   0.000000
   24        4.769074   0.000000
   25        5.040125   0.000000
 
 -0.3750000E+00  0.3750000E+00  0.1250000E+00  0.9375000E-01
    1      -29.235585   1.000000
    2      -29.234497   1.000000
    3      -21.133037   1.000000
    4      -19.080370   1.000000
    5      -19.080308   1.000000
    6      -19.080242   1.000000
    7      -19.076347   1.000000
    8      -19.076269   1.000000
    9      -12.795313   1.000000
   10      -12.777825   1.000000
   11      -12.765105   1.000000
   12      -12.736647   1.000000
   13      -12.714239   1.000000
   14      -12.711450   1.000000
   15       -8.016470   1.000000
   16       -7.993288   1.000000
   17       -7.978376   1.000000
   18       -6.975386   1.000000
   19        1.016289   1.000000
   20        1.280287   1.000000
   21        1.497888   1.000000
   22        3.867195   0.000000
   23        4.224973   0.000000
   24        4.684990   0.000000
   25        4.910057   0.000000
 
 -0.2500000E+00  0.3750000E+00  0.1250000E+00  0.4687500E-01
    1      -29.235468   1.000000
    2      -29.234627   1.000000
    3      -21.132984   1.000000
    4      -19.080402   1.000000
    5      -19.080308   1.000000
    6      -19.080251   1.000000
    7      -19.076360   1.000000
    8      -19.076278   1.000000
    9      -12.793475   1.000000
   10      -12.774076   1.000000
   11      -12.751679   1.000000
   12      -12.749763   1.000000
   13      -12.720103   1.000000
   14      -12.711027   1.000000
   15       -8.021025   1.000000
   16       -7.995506   1.000000
   17       -7.977028   1.000000
   18       -6.966511   1.000000
   19        0.966151   1.000000
   20        1.262465   1.000000
   21        1.468762   1.000000
   22        4.167433   0.000000
   23        4.373913   0.000000
   24        4.379577   0.000000
   25        5.055550   0.000000
 
 -0.3750000E+00  0.5000000E+00  0.1250000E+00  0.2343750E-01
    1      -29.236036   1.000000
    2      -29.234034   1.000000
    3      -21.133100   1.000000
    4      -19.080337   1.000000
    5      -19.080316   1.000000
    6      -19.080226   1.000000
    7      -19.076318   1.000000
    8      -19.076242   1.000000
    9      -12.796792   1.000000
   10      -12.781852   1.000000
   11      -12.778251   1.000000
   12      -12.724189   1.000000
   13      -12.712009   1.000000
   14      -12.707729   1.000000
   15       -8.016457   1.000000
   16       -7.981243   1.000000
   17       -7.980989   1.000000
   18       -6.992045   1.000000
   19        1.011530   1.000000
   20        1.502936   1.000000
   21        1.524547   1.000000
   22        3.490625   0.000000
   23        3.899295   0.000000
   24        4.817381   0.000000
   25        5.098640   0.000000
 
 -0.2500000E+00  0.5000000E+00  0.2500000E+00  0.1171875E-01
    1      -29.235036   1.000000
    2      -29.235033   1.000000
    3      -21.133069   1.000000
    4      -19.080322   1.000000
    5      -19.080252   1.000000
    6      -19.080251   1.000000
    7      -19.076333   1.000000
    8      -19.076235   1.000000
    9      -12.799914   1.000000
   10      -12.778785   1.000000
   11      -12.751367   1.000000
   12      -12.751365   1.000000
   13      -12.710487   1.000000
   14      -12.709245   1.000000
   15       -7.998655   1.000000
   16       -7.998652   1.000000
   17       -7.987682   1.000000
   18       -6.979503   1.000000
   19        1.204835   1.000000
   20        1.204841   1.000000
   21        1.375991   1.000000
   22        4.069968   0.000000
   23        4.309119   0.000000
   24        4.309123   0.000000
   25        4.840000   0.000000
