 vasp.5.4.4.18Apr17-6-g9f103f2a35 (build Jun 23 2019 17:35:09) complex          
  
 executed on             LinuxIFC date 2020.01.15  15:38:30
 running on   28 total cores
 distrk:  each k-point on    7 cores,    4 groups
 distr:  one band on NCORES_PER_BAND=   7 cores,    1 groups


--------------------------------------------------------------------------------------------------------


 INCAR:
 POTCAR:    PAW_PBE Bi_d 06Sep2000                
 POTCAR:    PAW_PBE Cs_sv 08Apr2002               
 POTCAR:    PAW_PBE K_sv 06Sep2000                

 ----------------------------------------------------------------------------- 
|                                                                             |
|           W    W    AA    RRRRR   N    N  II  N    N   GGGG   !!!           |
|           W    W   A  A   R    R  NN   N  II  NN   N  G    G  !!!           |
|           W    W  A    A  R    R  N N  N  II  N N  N  G       !!!           |
|           W WW W  AAAAAA  RRRRR   N  N N  II  N  N N  G  GGG   !            |
|           WW  WW  A    A  R   R   N   NN  II  N   NN  G    G                |
|           W    W  A    A  R    R  N    N  II  N    N   GGGG   !!!           |
|                                                                             |
|      You have enabled k-point parallelism (KPAR>1).                         |
|      This developmental code was originally  written by Paul Kent at ORNL,  |
|      and carefully double checked in Vienna.                                |
|      GW as well as linear response parallelism added by Martijn Marsman     |
|      and Georg Kresse.                                                      |
|      Carefully verify results versus KPAR=1.                                |
|      Report problems to Paul Kent and Vienna.                               |
|                                                                             |
 ----------------------------------------------------------------------------- 

 POTCAR:    PAW_PBE Bi_d 06Sep2000                
   VRHFIN =Bi:                                                                  
   LEXCH  = PE                                                                  
   EATOM  =  1959.2045 eV,  143.9975 Ry                                         
                                                                                
   TITEL  = PAW_PBE Bi_d 06Sep2000                                              
   LULTRA =        F    use ultrasoft PP ?                                      
   IUNSCR =        1    unscreen: 0-lin 1-nonlin 2-no                           
   RPACOR =    2.200    partial core radius                                     
   POMASS =  208.980; ZVAL   =   15.000    mass and valenz                      
   RCORE  =    2.500    outmost cutoff radius                                   
   RWIGS  =    3.090; RWIGS  =    1.635    wigner-seitz radius (au A)           
   ENMAX  =  242.839; ENMIN  =  182.129 eV                                      
   ICORE  =        3    local potential                                         
   LCOR   =        T    correct aug charges                                     
   LPAW   =        T    paw PP                                                  
   EAUG   =  442.899                                                            
   DEXC   =    0.000                                                            
   RMAX   =    2.551    core radius for proj-oper                               
   RAUG   =    1.300    factor for augmentation sphere                          
   RDEP   =    2.650    radius for radial grids                                 
   RDEPT  =    2.039    core radius for aug-charge                              
                                                                                
   Atomic configuration                                                         
   16 entries                                                                   
     n  l   j            E        occ.                                          
     1  0  0.50    -90639.6581   2.0000                                         
     2  0  0.50    -16282.4666   2.0000                                         
     2  1  1.50    -13922.8286   6.0000                                         
     3  0  0.50     -3930.4763   2.0000                                         
     3  1  1.50     -3256.7013   6.0000                                         
     3  2  2.50     -2581.6168  10.0000                                         
     4  0  0.50      -902.2614   2.0000                                         
     4  1  1.50      -681.5915   6.0000                                         
     4  2  2.50      -429.8249  10.0000                                         
     4  3  3.50      -152.6004  14.0000                                         
     5  0  0.50      -157.7156   2.0000                                         
     5  1  1.50       -95.8054   6.0000                                         
     5  2  2.50       -27.0806  10.0000                                         
     6  0  0.50       -14.4732   2.0000                                         
     6  1  1.50        -4.5702   3.0000                                         
     5  3  2.50        -2.7212   0.0000                                         
   Description                                                                  
     l       E           TYP  RCUT    TYP  RCUT                                 
     2    -27.0805982     23  2.500                                             
     2     -1.3605826     23  2.500                                             
     0    -14.4732271     23  2.500                                             
     0      6.8029130     23  2.500                                             
     1     -4.5701651     23  2.500                                             
     1     13.6058260     23  2.500                                             
     3     -1.3605826      7  2.500                                             
  local pseudopotential read in
  partial core-charges read in
  partial kinetic energy density read in
  atomic valenz-charges read in
  non local Contribution for L=           2  read in
    real space projection operators read in
  non local Contribution for L=           2  read in
    real space projection operators read in
  non local Contribution for L=           0  read in
    real space projection operators read in
  non local Contribution for L=           0  read in
    real space projection operators read in
  non local Contribution for L=           1  read in
    real space projection operators read in
  non local Contribution for L=           1  read in
    real space projection operators read in
    PAW grid and wavefunctions read in
 
   number of l-projection  operators is LMAX  =           6
   number of lm-projection operators is LMMAX =          18
 
 POTCAR:    PAW_PBE Cs_sv 08Apr2002               
   VRHFIN =Cs: 5s5p6s                                                           
   LEXCH  = PE                                                                  
   EATOM  =   555.6835 eV,   40.8416 Ry                                         
                                                                                
   TITEL  = PAW_PBE Cs_sv 08Apr2002                                             
   LULTRA =        F    use ultrasoft PP ?                                      
   IUNSCR =        1    unscreen: 0-lin 1-nonlin 2-no                           
   RPACOR =    2.200    partial core radius                                     
   POMASS =  132.900; ZVAL   =    9.000    mass and valenz                      
   RCORE  =    2.500    outmost cutoff radius                                   
   RWIGS  =    2.500; RWIGS  =    1.323    wigner-seitz radius (au A)           
   ENMAX  =  220.318; ENMIN  =  165.238 eV                                      
   RCLOC  =    2.207    cutoff for local pot                                    
   LCOR   =        T    correct aug charges                                     
   LPAW   =        T    paw PP                                                  
   EAUG   =  407.933                                                            
   DEXC   =    0.000                                                            
   RMAX   =    2.554    core radius for proj-oper                               
   RAUG   =    1.300    factor for augmentation sphere                          
   RDEP   =    2.590    radius for radial grids                                 
   RDEPT  =    2.117    core radius for aug-charge                              
                                                                                
   Atomic configuration                                                         
   13 entries                                                                   
     n  l   j            E        occ.                                          
     1  0  0.50    -35790.1377   2.0000                                         
     2  0  0.50     -5613.6201   2.0000                                         
     2  1  1.50     -5035.0101   6.0000                                         
     3  0  0.50     -1167.0767   2.0000                                         
     3  1  1.50      -980.9754   6.0000                                         
     3  2  2.50      -708.0703  10.0000                                         
     4  0  0.50      -220.2386   2.0000                                         
     4  1  1.50      -160.7596   6.0000                                         
     4  2  2.50       -74.2354  10.0000                                         
     5  0  0.50       -26.7287   2.0000                                         
     6  0  0.50        -2.0862   1.0000                                         
     5  1  1.50       -13.5159   6.0000                                         
     5  2  2.50        -0.4136   0.0000                                         
   Description                                                                  
     l       E           TYP  RCUT    TYP  RCUT                                 
     0    -26.7287425     23  1.900                                             
     0     -2.0862306     23  1.900                                             
     1    -13.5158719     23  2.500                                             
     1     -2.7211652     23  2.500                                             
     2     -0.4136171     23  2.500                                             
  local pseudopotential read in
  partial core-charges read in
  partial kinetic energy density read in
  atomic valenz-charges read in
  non local Contribution for L=           0  read in
    real space projection operators read in
  non local Contribution for L=           0  read in
    real space projection operators read in
  non local Contribution for L=           1  read in
    real space projection operators read in
  non local Contribution for L=           1  read in
    real space projection operators read in
  non local Contribution for L=           2  read in
    real space projection operators read in
    PAW grid and wavefunctions read in
 
   number of l-projection  operators is LMAX  =           5
   number of lm-projection operators is LMMAX =          13
 
 POTCAR:    PAW_PBE K_sv 06Sep2000                
   VRHFIN =K:  3s3p4s                                                           
   LEXCH  = PE                                                                  
   EATOM  =   775.0067 eV,   56.9614 Ry                                         
                                                                                
   TITEL  = PAW_PBE K_sv 06Sep2000                                              
   LULTRA =        F    use ultrasoft PP ?                                      
   IUNSCR =        1    unscreen: 0-lin 1-nonlin 2-no                           
   RPACOR =    2.200    partial core radius                                     
   POMASS =   39.098; ZVAL   =    9.000    mass and valenz                      
   RCORE  =    2.300    outmost cutoff radius                                   
   RWIGS  =    3.000; RWIGS  =    1.588    wigner-seitz radius (au A)           
   ENMAX  =  259.264; ENMIN  =  194.448 eV                                      
   RCLOC  =    2.005    cutoff for local pot                                    
   LCOR   =        T    correct aug charges                                     
   LPAW   =        T    paw PP                                                  
   EAUG   =  427.853                                                            
   DEXC   =    0.000                                                            
   RMAX   =    2.358    core radius for proj-oper                               
   RAUG   =    1.300    factor for augmentation sphere                          
   RDEP   =    2.372    radius for radial grids                                 
   RDEPT  =    2.002    core radius for aug-charge                              
                                                                                
   Atomic configuration                                                         
    7 entries                                                                   
     n  l   j            E        occ.                                          
     1  0  0.50     -3522.0595   2.0000                                         
     2  0  0.50      -353.3851   2.0000                                         
     2  1  1.50      -280.0935   6.0000                                         
     3  0  0.50       -35.3419   2.0000                                         
     4  0  0.50        -2.3190   1.0000                                         
     3  1  1.50       -18.8125   6.0000                                         
     3  2  1.50        -1.3606   0.0000                                         
   Description                                                                  
     l       E           TYP  RCUT    TYP  RCUT                                 
     0    -35.3418873     23  2.300                                             
     0     -2.3190215     23  2.300                                             
     1    -18.8124623     23  2.300                                             
     1    -20.4087390     23  2.300                                             
     2     -1.3605826     23  2.300                                             
  local pseudopotential read in
  partial core-charges read in
  partial kinetic energy density read in
  atomic valenz-charges read in
  non local Contribution for L=           0  read in
    real space projection operators read in
  non local Contribution for L=           0  read in
    real space projection operators read in
  non local Contribution for L=           1  read in
    real space projection operators read in
  non local Contribution for L=           1  read in
    real space projection operators read in
  non local Contribution for L=           2  read in
    real space projection operators read in
    PAW grid and wavefunctions read in
 
   number of l-projection  operators is LMAX  =           5
   number of lm-projection operators is LMMAX =          13
 
  PAW_PBE Bi_d 06Sep2000                :
 energy of atom  1       EATOM=-1959.2045
 kinetic energy error for atom=    0.0040 (will be added to EATOM!!)
  PAW_PBE Cs_sv 08Apr2002               :
 energy of atom  2       EATOM= -555.6835
 kinetic energy error for atom=    0.0016 (will be added to EATOM!!)
  PAW_PBE K_sv 06Sep2000                :
 energy of atom  3       EATOM= -775.0067
 kinetic energy error for atom=    0.0014 (will be added to EATOM!!)
 
 
 POSCAR: Cs K Bi                                 
  positions in direct lattice
  velocities in cartesian coordinates
 exchange correlation table for  LEXCH =        8
   RHO(1)=    0.500       N(1)  =     2000
   RHO(2)=  100.500       N(2)  =     4000
 


--------------------------------------------------------------------------------------------------------


 ion  position               nearest neighbor table
   1  0.250  0.250  0.250-   4 3.86   3 3.86   3 3.86   3 3.86   4 3.86   4 3.86   4 3.86   3 3.86

   2  0.750  0.750  0.750-
   3  0.000  0.000  0.000-   1 3.86   1 3.86   1 3.86   1 3.86
   4  0.500  0.500  0.500-   1 3.86   1 3.86   1 3.86   1 3.86
 
  LATTYP: Found a face centered cubic cell.
 ALAT       =     8.9187190579
  
  Lattice vectors:
  
 A1 = (   0.0000000000,   4.4593595290,   4.4593595290)
 A2 = (   4.4593595290,   0.0000000000,   4.4593595290)
 A3 = (   4.4593595290,   4.4593595290,   0.0000000000)


Analysis of symmetry for initial positions (statically):
=====================================================================
 Subroutine PRICEL returns:
 Original cell was already a primitive cell.
 

 Routine SETGRP: Setting up the symmetry group for a 
 face centered cubic supercell.


 Subroutine GETGRP returns: Found 48 space group operations
 (whereof 24 operations were pure point group operations)
 out of a pool of 48 trial point group operations.


The static configuration has the point symmetry T_d .
 The point group associated with its full space group is O_h .


Analysis of symmetry for dynamics (positions and initial velocities):
=====================================================================
 Subroutine PRICEL returns:
 Original cell was already a primitive cell.
 

 Routine SETGRP: Setting up the symmetry group for a 
 face centered cubic supercell.


 Subroutine GETGRP returns: Found 48 space group operations
 (whereof 24 operations were pure point group operations)
 out of a pool of 48 trial point group operations.


The dynamic configuration has the point symmetry T_d .
 The point group associated with its full space group is O_h .


 Subroutine INISYM returns: Found 48 space group operations
 (whereof 24 operations are pure point group operations),
 and found     1 'primitive' translations

 
 
 KPOINTS: KPOINTS                                 

Automatic generation of k-mesh.
Space group operators:
 irot       det(A)        alpha          n_x          n_y          n_z        tau_x        tau_y        tau_z
    1     1.000000     0.000000     1.000000     0.000000     0.000000     0.000000     0.000000     0.000000
    2     1.000000   120.000000    -0.577350    -0.577350    -0.577350     0.000000     0.000000     0.000000
    3     1.000000   120.000000     0.577350     0.577350     0.577350     0.000000     0.000000     0.000000
    4    -1.000000    90.000000     0.000000     0.000000    -1.000000     0.000000     0.000000     0.000000
    5    -1.000000   180.000000     0.000000     0.707107     0.707107     0.000000     0.000000     0.000000
    6    -1.000000    90.000000     0.000000     1.000000     0.000000     0.000000     0.000000     0.000000
    7     1.000000   180.000000     0.000000     0.000000     1.000000     0.000000     0.000000     0.000000
    8     1.000000   120.000000    -0.577350     0.577350     0.577350     0.000000     0.000000     0.000000
    9     1.000000   120.000000    -0.577350     0.577350    -0.577350     0.000000     0.000000     0.000000
   10    -1.000000    90.000000     0.000000     0.000000     1.000000     0.000000     0.000000     0.000000
   11    -1.000000    90.000000    -1.000000     0.000000     0.000000     0.000000     0.000000     0.000000
   12    -1.000000   180.000000     0.707107     0.000000     0.707107     0.000000     0.000000     0.000000
   13     1.000000   120.000000     0.577350    -0.577350     0.577350     0.000000     0.000000     0.000000
   14     1.000000   120.000000    -0.577350    -0.577350     0.577350     0.000000     0.000000     0.000000
   15     1.000000   180.000000     1.000000     0.000000     0.000000     0.000000     0.000000     0.000000
   16    -1.000000    90.000000     0.000000    -1.000000     0.000000     0.000000     0.000000     0.000000
   17    -1.000000   180.000000     0.707107     0.707107     0.000000     0.000000     0.000000     0.000000
   18    -1.000000    90.000000     1.000000     0.000000     0.000000     0.000000     0.000000     0.000000
   19     1.000000   120.000000     0.577350    -0.577350    -0.577350     0.000000     0.000000     0.000000
   20     1.000000   180.000000     0.000000     1.000000     0.000000     0.000000     0.000000     0.000000
   21     1.000000   120.000000     0.577350     0.577350    -0.577350     0.000000     0.000000     0.000000
   22    -1.000000   180.000000     0.000000    -0.707107     0.707107     0.000000     0.000000     0.000000
   23    -1.000000   180.000000     0.707107    -0.707107     0.000000     0.000000     0.000000     0.000000
   24    -1.000000   180.000000     0.707107     0.000000    -0.707107     0.000000     0.000000     0.000000
   25    -1.000000     0.000000     1.000000     0.000000     0.000000     0.500001     0.500001     0.500001
   26    -1.000000   120.000000    -0.577350    -0.577350    -0.577350     0.500001     0.500001     0.500001
   27    -1.000000   120.000000     0.577350     0.577350     0.577350     0.500001     0.500001     0.500001
   28     1.000000    90.000000     0.000000     0.000000    -1.000000     0.499999     0.500001     0.500001
   29     1.000000   180.000000     0.000000     0.707107     0.707107     0.499999     0.500001     0.500001
   30     1.000000    90.000000     0.000000     1.000000     0.000000     0.499999     0.500001     0.500001
   31    -1.000000   180.000000     0.000000     0.000000     1.000000     0.500001     0.500001     0.499999
   32    -1.000000   120.000000    -0.577350     0.577350     0.577350     0.500001     0.500001     0.499999
   33    -1.000000   120.000000    -0.577350     0.577350    -0.577350     0.500001     0.500001     0.499999
   34     1.000000    90.000000     0.000000     0.000000     1.000000     0.500001     0.499999     0.500001
   35     1.000000    90.000000    -1.000000     0.000000     0.000000     0.500001     0.499999     0.500001
   36     1.000000   180.000000     0.707107     0.000000     0.707107     0.500001     0.499999     0.500001
   37    -1.000000   120.000000     0.577350    -0.577350     0.577350     0.499999     0.500001     0.500001
   38    -1.000000   120.000000    -0.577350    -0.577350     0.577350     0.499999     0.500001     0.500001
   39    -1.000000   180.000000     1.000000     0.000000     0.000000     0.499999     0.500001     0.500001
   40     1.000000    90.000000     0.000000    -1.000000     0.000000     0.500001     0.500001     0.499999
   41     1.000000   180.000000     0.707107     0.707107     0.000000     0.500001     0.500001     0.499999
   42     1.000000    90.000000     1.000000     0.000000     0.000000     0.500001     0.500001     0.499999
   43    -1.000000   120.000000     0.577350    -0.577350    -0.577350     0.500001     0.499999     0.500001
   44    -1.000000   180.000000     0.000000     1.000000     0.000000     0.500001     0.499999     0.500001
   45    -1.000000   120.000000     0.577350     0.577350    -0.577350     0.500001     0.499999     0.500001
   46     1.000000   180.000000     0.000000    -0.707107     0.707107     0.500001     0.500001     0.500001
   47     1.000000   180.000000     0.707107    -0.707107     0.000000     0.500001     0.500001     0.500001
   48     1.000000   180.000000     0.707107     0.000000    -0.707107     0.500001     0.500001     0.500001
 
 Subroutine IBZKPT returns following result:
 ===========================================
 
 Found     29 irreducible k-points:
 
 Following reciprocal coordinates:
            Coordinates               Weight
  0.000000  0.000000  0.000000      1.000000
  0.125000  0.000000  0.000000      8.000000
  0.250000  0.000000  0.000000      8.000000
  0.375000  0.000000  0.000000      8.000000
  0.500000  0.000000  0.000000      4.000000
  0.125000  0.125000  0.000000      6.000000
  0.250000  0.125000  0.000000     24.000000
  0.375000  0.125000  0.000000     24.000000
  0.500000  0.125000  0.000000     24.000000
 -0.375000  0.125000  0.000000     24.000000
 -0.250000  0.125000  0.000000     24.000000
 -0.125000  0.125000  0.000000     12.000000
  0.250000  0.250000  0.000000      6.000000
  0.375000  0.250000  0.000000     24.000000
  0.500000  0.250000  0.000000     24.000000
 -0.375000  0.250000  0.000000     24.000000
 -0.250000  0.250000  0.000000     12.000000
  0.375000  0.375000  0.000000      6.000000
  0.500000  0.375000  0.000000     24.000000
 -0.375000  0.375000  0.000000     12.000000
  0.500000  0.500000  0.000000      3.000000
  0.375000  0.250000  0.125000     24.000000
  0.500000  0.250000  0.125000     48.000000
 -0.375000  0.250000  0.125000     24.000000
  0.500000  0.375000  0.125000     24.000000
 -0.375000  0.375000  0.125000     48.000000
 -0.250000  0.375000  0.125000     24.000000
 -0.375000  0.500000  0.125000     12.000000
 -0.250000  0.500000  0.250000      6.000000
 
 Following cartesian coordinates:
            Coordinates               Weight
  0.000000  0.000000  0.000000      1.000000
 -0.014015  0.014015  0.014015      8.000000
 -0.028031  0.028031  0.028031      8.000000
 -0.042046  0.042046  0.042046      8.000000
 -0.056062  0.056062  0.056062      4.000000
  0.000000  0.000000  0.028031      6.000000
 -0.014015  0.014015  0.042046     24.000000
 -0.028031  0.028031  0.056062     24.000000
 -0.042046  0.042046  0.070077     24.000000
  0.056062 -0.056062 -0.028031     24.000000
  0.042046 -0.042046 -0.014015     24.000000
  0.028031 -0.028031  0.000000     12.000000
  0.000000  0.000000  0.056062      6.000000
 -0.014015  0.014015  0.070077     24.000000
 -0.028031  0.028031  0.084093     24.000000
  0.070077 -0.070077 -0.014015     24.000000
  0.056062 -0.056062  0.000000     12.000000
  0.000000  0.000000  0.084093      6.000000
 -0.014015  0.014015  0.098108     24.000000
  0.084093 -0.084093  0.000000     12.000000
  0.000000  0.000000  0.112124      3.000000
  0.000000  0.028031  0.056062     24.000000
 -0.014015  0.042046  0.070077     48.000000
  0.084093 -0.056062 -0.028031     24.000000
  0.000000  0.028031  0.084093     24.000000
  0.098108 -0.070077 -0.014015     48.000000
  0.084093 -0.056062 -0.000000     24.000000
  0.112124 -0.084093 -0.000000     12.000000
  0.112124 -0.056062 -0.000000      6.000000
 


--------------------------------------------------------------------------------------------------------




 Dimension of arrays:
   k-points           NKPTS =     29   k-points in BZ     NKDIM =     29   number of bands    NBANDS=     25
   number of dos      NEDOS =    301   number of ions     NIONS =      4
   non local maximal  LDIM  =      6   non local SUM 2l+1 LMDIM =     18
   total plane-waves  NPLWV = 110592
   max r-space proj   IRMAX =      1   max aug-charges    IRDMAX=  31371
   dimension x,y,z NGX =    48 NGY =   48 NGZ =   48
   dimension x,y,z NGXF=    96 NGYF=   96 NGZF=   96
   support grid    NGXF=    96 NGYF=   96 NGZF=   96
   ions per type =               1   1   2
   NGX,Y,Z   is equivalent  to a cutoff of  12.65, 12.65, 12.65 a.u.
   NGXF,Y,Z  is equivalent  to a cutoff of  25.31, 25.31, 25.31 a.u.

 SYSTEM =  unknown system                          
 POSCAR =  Cs K Bi                                 

 Startparameter for this run:
   NWRITE =      2    write-flag & timer
   PREC   = acc       normal or accurate (medium, high low for compatibility)
   ISTART =      0    job   : 0-new  1-cont  2-samecut
   ICHARG =      2    charge: 1-file 2-atom 10-const
   ISPIN  =      1    spin polarized calculation?
   LNONCOLLINEAR =      F non collinear calculations
   LSORBIT =      F    spin-orbit coupling
   INIWAV =      1    electr: 0-lowe 1-rand  2-diag
   LASPH  =      F    aspherical Exc in radial PAW
   METAGGA=      F    non-selfconsistent MetaGGA calc.

 Electronic Relaxation 1
   ENCUT  =  520.0 eV  38.22 Ry    6.18 a.u.  11.73 11.73 11.73*2*pi/ulx,y,z
   ENINI  =  520.0     initial cutoff
   ENAUG  =  442.9 eV  augmentation charge cutoff
   NELM   =    150;   NELMIN=  5; NELMDL= -5     # of ELM steps 
   EDIFF  = 0.1E-07   stopping-criterion for ELM
   LREAL  =      F    real-space projection
   NLSPLINE    = F    spline interpolate recip. space projectors
   LCOMPAT=      F    compatible to vasp.4.4
   GGA_COMPAT  = T    GGA compatible to vasp.4.4-vasp.4.6
   LMAXPAW     = -100 max onsite density
   LMAXMIX     =    2 max onsite mixed and CHGCAR
   VOSKOWN=      0    Vosko Wilk Nusair interpolation
   ROPT   =    0.00000   0.00000   0.00000
 Ionic relaxation
   EDIFFG = 0.1E-06   stopping-criterion for IOM
   NSW    =      0    number of steps for IOM
   NBLOCK =      1;   KBLOCK =      1    inner block; outer block 
   IBRION =     -1    ionic relax: 0-MD 1-quasi-New 2-CG
   NFREE  =      0    steps in history (QN), initial steepest desc. (CG)
   ISIF   =      3    stress and relaxation
   IWAVPR =     10    prediction:  0-non 1-charg 2-wave 3-comb
   ISYM   =      2    0-nonsym 1-usesym 2-fastsym
   LCORR  =      T    Harris-Foulkes like correction to forces

   POTIM  = 0.5000    time-step for ionic-motion
   TEIN   =    0.0    initial temperature
   TEBEG  =    0.0;   TEEND  =   0.0 temperature during run
   SMASS  =  -3.00    Nose mass-parameter (am)
   estimated Nose-frequenzy (Omega)   =  0.10E-29 period in steps =****** mass=  -0.909E-27a.u.
   SCALEE = 1.0000    scale energy and forces
   NPACO  =    256;   APACO  = 16.0  distance and # of slots for P.C.
   PSTRESS=    0.0 pullay stress

  Mass of Ions in am
   POMASS = 208.98132.90 39.10
  Ionic Valenz
   ZVAL   =  15.00  9.00  9.00
  Atomic Wigner-Seitz radii
   RWIGS  =  -1.00 -1.00 -1.00
  virtual crystal weights 
   VCA    =   1.00  1.00  1.00
   NELECT =      42.0000    total number of electrons
   NUPDOWN=      -1.0000    fix difference up-down

 DOS related values:
   EMIN   =  10.00;   EMAX   =-10.00  energy-range for DOS
   EFERMI =   0.00
   ISMEAR =     0;   SIGMA  =   0.05  broadening in eV -4-tet -1-fermi 0-gaus

 Electronic relaxation 2 (details)
   IALGO  =     38    algorithm
   LDIAG  =      T    sub-space diagonalisation (order eigenvalues)
   LSUBROT=      F    optimize rotation matrix (better conditioning)
   TURBO    =      0    0=normal 1=particle mesh
   IRESTART =      0    0=no restart 2=restart with 2 vectors
   NREBOOT  =      0    no. of reboots
   NMIN     =      0    reboot dimension
   EREF     =   0.00    reference energy to select bands
   IMIX   =      4    mixing-type and parameters
     AMIX     =   0.40;   BMIX     =  1.00
     AMIX_MAG =   1.60;   BMIX_MAG =  1.00
     AMIN     =   0.10
     WC   =   100.;   INIMIX=   1;  MIXPRE=   1;  MAXMIX= -45

 Intra band minimization:
   WEIMIN = 0.0000     energy-eigenvalue tresh-hold
   EBREAK =  0.10E-09  absolut break condition
   DEPER  =   0.30     relativ break condition  

   TIME   =   0.40     timestep for ELM

  volume/ion in A,a.u.               =      44.34       299.22
  Fermi-wavevector in a.u.,A,eV,Ry     =   1.012843  1.913996 13.957548  1.025851
  Thomas-Fermi vector in A             =   2.145976
 
 Write flags
   LWAVE        =      F    write WAVECAR
   LDOWNSAMPLE  =      F    k-point downsampling of WAVECAR
   LCHARG       =      F    write CHGCAR
   LVTOT        =      F    write LOCPOT, total local potential
   LVHAR        =      F    write LOCPOT, Hartree potential only
   LELF         =      F    write electronic localiz. function (ELF)
   LORBIT       =      0    0 simple, 1 ext, 2 COOP (PROOUT), +10 PAW based schemes


 Dipole corrections
   LMONO  =      F    monopole corrections only (constant potential shift)
   LDIPOL =      F    correct potential (dipole corrections)
   IDIPOL =      0    1-x, 2-y, 3-z, 4-all directions 
   EPSILON=  1.0000000 bulk dielectric constant

 Exchange correlation treatment:
   GGA     =    PE    GGA type
   LEXCH   =     8    internal setting for exchange type
   VOSKOWN=      0    Vosko Wilk Nusair interpolation
   LHFCALC =     F    Hartree Fock is set to
   LHFONE  =     F    Hartree Fock one center treatment
   AEXX    =    0.0000 exact exchange contribution

 Linear response parameters
   LEPSILON=     F    determine dielectric tensor
   LRPA    =     F    only Hartree local field effects (RPA)
   LNABLA  =     F    use nabla operator in PAW spheres
   LVEL    =     F    velocity operator in full k-point grid
   LINTERFAST=   F  fast interpolation
   KINTER  =     0    interpolate to denser k-point grid
   CSHIFT  =0.1000    complex shift for real part using Kramers Kronig
   OMEGAMAX=  -1.0    maximum frequency
   DEG_THRESHOLD= 0.2000000E-02 threshold for treating states as degnerate
   RTIME   =   -0.100 relaxation time in fs
  (WPLASMAI=    0.000 imaginary part of plasma frequency in eV, 0.658/RTIME)
   DFIELD  = 0.0000000 0.0000000 0.0000000 field for delta impulse in time
 
 Orbital magnetization related:
   ORBITALMAG=     F  switch on orbital magnetization
   LCHIMAG   =     F  perturbation theory with respect to B field
   DQ        =  0.001000  dq finite difference perturbation B field
   LLRAUG    =     F  two centre corrections for induced B field



--------------------------------------------------------------------------------------------------------


 Static calculation
 charge density and potential will be updated during run
 non-spin polarized calculation
 Variant of blocked Davidson
 Davidson routine will perform the subspace rotation
 perform sub-space diagonalisation
    after iterative eigenvector-optimisation
 modified Broyden-mixing scheme, WC =      100.0
 initial mixing is a Kerker type mixing with AMIX =  0.4000 and BMIX =      1.0000
 Hartree-type preconditioning will be used
 using additional bands            4
 reciprocal scheme for non local part
 use partial core corrections
 calculate Harris-corrections to forces 
   (improved forces if not selfconsistent)
 use gradient corrections 
 use of overlap-Matrix (Vanderbilt PP)
 Gauss-broadening in eV      SIGMA  =   0.05


--------------------------------------------------------------------------------------------------------


  energy-cutoff  :      520.00
  volume of cell :      177.36
      direct lattice vectors                 reciprocal lattice vectors
     0.000000000  4.459359529  4.459359529    -0.112123725  0.112123725  0.112123725
     4.459359529  0.000000000  4.459359529     0.112123725 -0.112123725  0.112123725
     4.459359529  4.459359529  0.000000000     0.112123725  0.112123725 -0.112123725

  length of vectors
     6.306486725  6.306486725  6.306486725     0.194203988  0.194203988  0.194203988


 
 k-points in units of 2pi/SCALE and weight: KPOINTS                                 
   0.00000000  0.00000000  0.00000000       0.002
  -0.01401547  0.01401547  0.01401547       0.016
  -0.02803093  0.02803093  0.02803093       0.016
  -0.04204640  0.04204640  0.04204640       0.016
  -0.05606186  0.05606186  0.05606186       0.008
   0.00000000  0.00000000  0.02803093       0.012
  -0.01401547  0.01401547  0.04204640       0.047
  -0.02803093  0.02803093  0.05606186       0.047
  -0.04204640  0.04204640  0.07007733       0.047
   0.05606186 -0.05606186 -0.02803093       0.047
   0.04204640 -0.04204640 -0.01401547       0.047
   0.02803093 -0.02803093  0.00000000       0.023
   0.00000000  0.00000000  0.05606186       0.012
  -0.01401547  0.01401547  0.07007733       0.047
  -0.02803093  0.02803093  0.08409279       0.047
   0.07007733 -0.07007733 -0.01401547       0.047
   0.05606186 -0.05606186  0.00000000       0.023
   0.00000000  0.00000000  0.08409279       0.012
  -0.01401547  0.01401547  0.09810826       0.047
   0.08409279 -0.08409279  0.00000000       0.023
   0.00000000  0.00000000  0.11212372       0.006
   0.00000000  0.02803093  0.05606186       0.047
  -0.01401547  0.04204640  0.07007733       0.094
   0.08409279 -0.05606186 -0.02803093       0.047
   0.00000000  0.02803093  0.08409279       0.047
   0.09810826 -0.07007733 -0.01401547       0.094
   0.08409279 -0.05606186 -0.00000000       0.047
   0.11212372 -0.08409279 -0.00000000       0.023
   0.11212372 -0.05606186 -0.00000000       0.012
 
 k-points in reciprocal lattice and weights: KPOINTS                                 
   0.00000000  0.00000000  0.00000000       0.002
   0.12500000  0.00000000  0.00000000       0.016
   0.25000000  0.00000000  0.00000000       0.016
   0.37500000  0.00000000  0.00000000       0.016
   0.50000000  0.00000000  0.00000000       0.008
   0.12500000  0.12500000  0.00000000       0.012
   0.25000000  0.12500000  0.00000000       0.047
   0.37500000  0.12500000  0.00000000       0.047
   0.50000000  0.12500000  0.00000000       0.047
  -0.37500000  0.12500000  0.00000000       0.047
  -0.25000000  0.12500000  0.00000000       0.047
  -0.12500000  0.12500000  0.00000000       0.023
   0.25000000  0.25000000  0.00000000       0.012
   0.37500000  0.25000000  0.00000000       0.047
   0.50000000  0.25000000  0.00000000       0.047
  -0.37500000  0.25000000  0.00000000       0.047
  -0.25000000  0.25000000  0.00000000       0.023
   0.37500000  0.37500000  0.00000000       0.012
   0.50000000  0.37500000  0.00000000       0.047
  -0.37500000  0.37500000  0.00000000       0.023
   0.50000000  0.50000000  0.00000000       0.006
   0.37500000  0.25000000  0.12500000       0.047
   0.50000000  0.25000000  0.12500000       0.094
  -0.37500000  0.25000000  0.12500000       0.047
   0.50000000  0.37500000  0.12500000       0.047
  -0.37500000  0.37500000  0.12500000       0.094
  -0.25000000  0.37500000  0.12500000       0.047
  -0.37500000  0.50000000  0.12500000       0.023
  -0.25000000  0.50000000  0.25000000       0.012
 
 position of ions in fractional coordinates (direct lattice) 
   0.25000051  0.25000051  0.25000051
   0.75000039  0.75000039  0.75000039
   0.00000000  0.00000000  0.00000000
   0.49999989  0.49999989  0.49999989
 
 position of ions in cartesian coordinates  (Angst):
   2.22968428  2.22968428  2.22968428
   6.68904281  6.68904281  6.68904281
   0.00000000  0.00000000  0.00000000
   4.45935853  4.45935853  4.45935853
 


--------------------------------------------------------------------------------------------------------


 k-point  1 :   0.0000 0.0000 0.0000  plane waves:    4693
 k-point  2 :   0.1250 0.0000 0.0000  plane waves:    4780
 k-point  3 :   0.2500 0.0000 0.0000  plane waves:    4774
 k-point  4 :   0.3750 0.0000 0.0000  plane waves:    4762
 k-point  5 :   0.5000 0.0000 0.0000  plane waves:    4802
 k-point  6 :   0.1250 0.1250 0.0000  plane waves:    4781
 k-point  7 :   0.2500 0.1250 0.0000  plane waves:    4784
 k-point  8 :   0.3750 0.1250 0.0000  plane waves:    4760
 k-point  9 :   0.5000 0.1250 0.0000  plane waves:    4783
 k-point 10 :  -0.3750 0.1250 0.0000  plane waves:    4768
 k-point 11 :  -0.2500 0.1250 0.0000  plane waves:    4769
 k-point 12 :  -0.1250 0.1250 0.0000  plane waves:    4789
 k-point 13 :   0.2500 0.2500 0.0000  plane waves:    4801
 k-point 14 :   0.3750 0.2500 0.0000  plane waves:    4774
 k-point 15 :   0.5000 0.2500 0.0000  plane waves:    4770
 k-point 16 :  -0.3750 0.2500 0.0000  plane waves:    4777
 k-point 17 :  -0.2500 0.2500 0.0000  plane waves:    4768
 k-point 18 :   0.3750 0.3750 0.0000  plane waves:    4772
 k-point 19 :   0.5000 0.3750 0.0000  plane waves:    4777
 k-point 20 :  -0.3750 0.3750 0.0000  plane waves:    4766
 k-point 21 :   0.5000 0.5000 0.0000  plane waves:    4800
 k-point 22 :   0.3750 0.2500 0.1250  plane waves:    4773
 k-point 23 :   0.5000 0.2500 0.1250  plane waves:    4768
 k-point 24 :  -0.3750 0.2500 0.1250  plane waves:    4778
 k-point 25 :   0.5000 0.3750 0.1250  plane waves:    4787
 k-point 26 :  -0.3750 0.3750 0.1250  plane waves:    4778
 k-point 27 :  -0.2500 0.3750 0.1250  plane waves:    4775
 k-point 28 :  -0.3750 0.5000 0.1250  plane waves:    4776
 k-point 29 :  -0.2500 0.5000 0.2500  plane waves:    4732

 maximum and minimum number of plane-waves per node :       697      663

 maximum number of plane-waves:      4802
 maximum index in each direction: 
   IXMAX=   12   IYMAX=   11   IZMAX=   11
   IXMIN=  -12   IYMIN=  -12   IZMIN=  -11


 parallel 3D FFT for wavefunctions:
    minimum data exchange during FFTs selected (reduces bandwidth)
 parallel 3D FFT for charge:
    minimum data exchange during FFTs selected (reduces bandwidth)


 total amount of memory used by VASP MPI-rank0    60820. kBytes
=======================================================================

   base      :      30000. kBytes
   nonl-proj :       8688. kBytes
   fftplans  :       4868. kBytes
   grid      :       9037. kBytes
   one-center:         15. kBytes
   wavefun   :       8212. kBytes
 
     INWAV:  cpu time    0.0000: real time    0.0000
 Broyden mixing: mesh for mixing (old mesh)
   NGX = 23   NGY = 23   NGZ = 23
  (NGX  = 96   NGY  = 96   NGZ  = 96)
  gives a total of  12167 points

 initial charge density was supplied:
 charge density of overlapping atoms calculated
 number of electron      42.0000000 magnetization 
 keeping initial charge density in first step


--------------------------------------------------------------------------------------------------------


 Maximum index for augmentation-charges         4340 (set IRDMAX)


--------------------------------------------------------------------------------------------------------


 First call to EWALD:  gamma=   0.315
 Maximum number of real-space cells 3x 3x 3
 Maximum number of reciprocal cells 3x 3x 3

    FEWALD:  cpu time    0.0015: real time    0.0015


--------------------------------------- Iteration      1(   1)  ---------------------------------------


    POTLOK:  cpu time    0.0794: real time    0.0814
    SETDIJ:  cpu time    0.0091: real time    0.0091
     EDDAV:  cpu time    0.4832: real time    0.4838
       DOS:  cpu time    0.0007: real time    0.0007
    --------------------------------------------
      LOOP:  cpu time    0.5724: real time    0.5749

 eigenvalue-minimisations  :  1450
 total energy-change (2. order) : 0.3855772E+03  (-0.1956842E+04)
 number of electron      42.0000000 magnetization 
 augmentation part       42.0000000 magnetization 

 Free energy of the ion-electron system (eV)
  ---------------------------------------------------
  alpha Z        PSCENC =       139.65821781
  Ewald energy   TEWEN  =     -2671.57065026
  -Hartree energ DENC   =     -1157.65171895
  -exchange      EXHF   =         0.00000000
  -V(xc)+E(xc)   XCENC  =       129.92733453
  PAW double counting   =      3288.09641306    -3241.43768472
  entropy T*S    EENTRO =        -0.00201470
  eigenvalues    EBANDS =      -166.33575490
  atomic energy  EATOM  =      4064.89301065
  Solvation  Ediel_sol  =         0.00000000
  ---------------------------------------------------
  free energy    TOTEN  =       385.57715252 eV

  energy without entropy =      385.57916721  energy(sigma->0) =      385.57815986


--------------------------------------------------------------------------------------------------------




--------------------------------------- Iteration      1(   2)  ---------------------------------------


     EDDAV:  cpu time    0.5046: real time    0.5071
       DOS:  cpu time    0.0004: real time    0.0004
    --------------------------------------------
      LOOP:  cpu time    0.5050: real time    0.5076

 eigenvalue-minimisations  :  1705
 total energy-change (2. order) :-0.3612569E+03  (-0.3567739E+03)
 number of electron      42.0000000 magnetization 
 augmentation part       42.0000000 magnetization 

 Free energy of the ion-electron system (eV)
  ---------------------------------------------------
  alpha Z        PSCENC =       139.65821781
  Ewald energy   TEWEN  =     -2671.57065026
  -Hartree energ DENC   =     -1157.65171895
  -exchange      EXHF   =         0.00000000
  -V(xc)+E(xc)   XCENC  =       129.92733453
  PAW double counting   =      3288.09641306    -3241.43768472
  entropy T*S    EENTRO =        -0.00000051
  eigenvalues    EBANDS =      -527.59465079
  atomic energy  EATOM  =      4064.89301065
  Solvation  Ediel_sol  =         0.00000000
  ---------------------------------------------------
  free energy    TOTEN  =        24.32027082 eV

  energy without entropy =       24.32027133  energy(sigma->0) =       24.32027107


--------------------------------------------------------------------------------------------------------




--------------------------------------- Iteration      1(   3)  ---------------------------------------


     EDDAV:  cpu time    0.6153: real time    0.6169
       DOS:  cpu time    0.0003: real time    0.0003
    --------------------------------------------
      LOOP:  cpu time    0.6156: real time    0.6172

 eigenvalue-minimisations  :  2037
 total energy-change (2. order) :-0.3220094E+02  (-0.3215697E+02)
 number of electron      42.0000000 magnetization 
 augmentation part       42.0000000 magnetization 

 Free energy of the ion-electron system (eV)
  ---------------------------------------------------
  alpha Z        PSCENC =       139.65821781
  Ewald energy   TEWEN  =     -2671.57065026
  -Hartree energ DENC   =     -1157.65171895
  -exchange      EXHF   =         0.00000000
  -V(xc)+E(xc)   XCENC  =       129.92733453
  PAW double counting   =      3288.09641306    -3241.43768472
  entropy T*S    EENTRO =        -0.00000000
  eigenvalues    EBANDS =      -559.79559065
  atomic energy  EATOM  =      4064.89301065
  Solvation  Ediel_sol  =         0.00000000
  ---------------------------------------------------
  free energy    TOTEN  =        -7.88066854 eV

  energy without entropy =       -7.88066854  energy(sigma->0) =       -7.88066854


--------------------------------------------------------------------------------------------------------




--------------------------------------- Iteration      1(   4)  ---------------------------------------


     EDDAV:  cpu time    0.6623: real time    0.6630
       DOS:  cpu time    0.0003: real time    0.0003
    --------------------------------------------
      LOOP:  cpu time    0.6625: real time    0.6633

 eigenvalue-minimisations  :  2216
 total energy-change (2. order) :-0.1262967E+01  (-0.1261576E+01)
 number of electron      42.0000000 magnetization 
 augmentation part       42.0000000 magnetization 

 Free energy of the ion-electron system (eV)
  ---------------------------------------------------
  alpha Z        PSCENC =       139.65821781
  Ewald energy   TEWEN  =     -2671.57065026
  -Hartree energ DENC   =     -1157.65171895
  -exchange      EXHF   =         0.00000000
  -V(xc)+E(xc)   XCENC  =       129.92733453
  PAW double counting   =      3288.09641306    -3241.43768472
  entropy T*S    EENTRO =        -0.00000000
  eigenvalues    EBANDS =      -561.05855812
  atomic energy  EATOM  =      4064.89301065
  Solvation  Ediel_sol  =         0.00000000
  ---------------------------------------------------
  free energy    TOTEN  =        -9.14363601 eV

  energy without entropy =       -9.14363601  energy(sigma->0) =       -9.14363601


--------------------------------------------------------------------------------------------------------




--------------------------------------- Iteration      1(   5)  ---------------------------------------


     EDDAV:  cpu time    0.6579: real time    0.6591
       DOS:  cpu time    0.0003: real time    0.0003
    CHARGE:  cpu time    0.0606: real time    0.0606
    MIXING:  cpu time    0.0045: real time    0.0045
    --------------------------------------------
      LOOP:  cpu time    0.7233: real time    0.7245

 eigenvalue-minimisations  :  2225
 total energy-change (2. order) :-0.3343193E-01  (-0.3342880E-01)
 number of electron      42.0000003 magnetization 
 augmentation part        6.7061016 magnetization 

 Broyden mixing:
  rms(total) = 0.44747E+00    rms(broyden)= 0.44747E+00
  rms(prec ) = 0.10480E+01
  weight for this iteration     100.00

 Free energy of the ion-electron system (eV)
  ---------------------------------------------------
  alpha Z        PSCENC =       139.65821781
  Ewald energy   TEWEN  =     -2671.57065026
  -Hartree energ DENC   =     -1157.65171895
  -exchange      EXHF   =         0.00000000
  -V(xc)+E(xc)   XCENC  =       129.92733453
  PAW double counting   =      3288.09641306    -3241.43768472
  entropy T*S    EENTRO =        -0.00000000
  eigenvalues    EBANDS =      -561.09199005
  atomic energy  EATOM  =      4064.89301065
  Solvation  Ediel_sol  =         0.00000000
  ---------------------------------------------------
  free energy    TOTEN  =        -9.17706794 eV

  energy without entropy =       -9.17706794  energy(sigma->0) =       -9.17706794


--------------------------------------------------------------------------------------------------------




--------------------------------------- Iteration      1(   6)  ---------------------------------------


    POTLOK:  cpu time    0.0847: real time    0.0850
    SETDIJ:  cpu time    0.0055: real time    0.0055
     EDDAV:  cpu time    0.5225: real time    0.5242
       DOS:  cpu time    0.0004: real time    0.0004
    CHARGE:  cpu time    0.0584: real time    0.0584
    MIXING:  cpu time    0.0052: real time    0.0052
    --------------------------------------------
      LOOP:  cpu time    0.6766: real time    0.6787

 eigenvalue-minimisations  :  1683
 total energy-change (2. order) : 0.7442060E+00  (-0.1781658E+00)
 number of electron      42.0000003 magnetization 
 augmentation part        6.7319792 magnetization 

 Broyden mixing:
  rms(total) = 0.34211E+00    rms(broyden)= 0.34211E+00
  rms(prec ) = 0.54075E+00
  weight for this iteration     100.00

 eigenvalues of (default mixing * dielectric matrix)
  average eigenvalue GAMMA=   1.7325
  1.7325

 Free energy of the ion-electron system (eV)
  ---------------------------------------------------
  alpha Z        PSCENC =       139.65821781
  Ewald energy   TEWEN  =     -2671.57065026
  -Hartree energ DENC   =     -1160.34267504
  -exchange      EXHF   =         0.00000000
  -V(xc)+E(xc)   XCENC  =       129.87598455
  PAW double counting   =      3354.64085907    -3311.62809840
  entropy T*S    EENTRO =        -0.00000000
  eigenvalues    EBANDS =      -553.95951027
  atomic energy  EATOM  =      4064.89301065
  Solvation  Ediel_sol  =         0.00000000
  ---------------------------------------------------
  free energy    TOTEN  =        -8.43286190 eV

  energy without entropy =       -8.43286190  energy(sigma->0) =       -8.43286190


--------------------------------------------------------------------------------------------------------




--------------------------------------- Iteration      1(   7)  ---------------------------------------


    POTLOK:  cpu time    0.0842: real time    0.0846
    SETDIJ:  cpu time    0.0053: real time    0.0053
     EDDAV:  cpu time    0.6037: real time    0.6040
       DOS:  cpu time    0.0005: real time    0.0005
    CHARGE:  cpu time    0.0574: real time    0.0574
    MIXING:  cpu time    0.0040: real time    0.0040
    --------------------------------------------
      LOOP:  cpu time    0.7550: real time    0.7558

 eigenvalue-minimisations  :  2046
 total energy-change (2. order) : 0.1272191E+00  (-0.8682683E-01)
 number of electron      42.0000003 magnetization 
 augmentation part        6.7256824 magnetization 

 Broyden mixing:
  rms(total) = 0.18341E+00    rms(broyden)= 0.18341E+00
  rms(prec ) = 0.21660E+00
  weight for this iteration     100.00

 eigenvalues of (default mixing * dielectric matrix)
  average eigenvalue GAMMA=   1.9595
  1.9595  1.9595

 Free energy of the ion-electron system (eV)
  ---------------------------------------------------
  alpha Z        PSCENC =       139.65821781
  Ewald energy   TEWEN  =     -2671.57065026
  -Hartree energ DENC   =     -1158.72897503
  -exchange      EXHF   =         0.00000000
  -V(xc)+E(xc)   XCENC  =       129.74488284
  PAW double counting   =      3384.32424406    -3342.65388658
  entropy T*S    EENTRO =        -0.00000006
  eigenvalues    EBANDS =      -553.97248620
  atomic energy  EATOM  =      4064.89301065
  Solvation  Ediel_sol  =         0.00000000
  ---------------------------------------------------
  free energy    TOTEN  =        -8.30564277 eV

  energy without entropy =       -8.30564272  energy(sigma->0) =       -8.30564275


--------------------------------------------------------------------------------------------------------




--------------------------------------- Iteration      1(   8)  ---------------------------------------


    POTLOK:  cpu time    0.0816: real time    0.0821
    SETDIJ:  cpu time    0.0050: real time    0.0050
     EDDAV:  cpu time    0.5384: real time    0.5388
       DOS:  cpu time    0.0004: real time    0.0004
    CHARGE:  cpu time    0.0573: real time    0.0573
    MIXING:  cpu time    0.0041: real time    0.0041
    --------------------------------------------
      LOOP:  cpu time    0.6869: real time    0.6878

 eigenvalue-minimisations  :  1800
 total energy-change (2. order) :-0.1074059E-01  (-0.1230048E-01)
 number of electron      42.0000003 magnetization 
 augmentation part        6.7146713 magnetization 

 Broyden mixing:
  rms(total) = 0.23321E-01    rms(broyden)= 0.23320E-01
  rms(prec ) = 0.58173E-01
  weight for this iteration     100.00

 eigenvalues of (default mixing * dielectric matrix)
  average eigenvalue GAMMA=   1.6760
  1.2306  1.8986  1.8986

 Free energy of the ion-electron system (eV)
  ---------------------------------------------------
  alpha Z        PSCENC =       139.65821781
  Ewald energy   TEWEN  =     -2671.57065026
  -Hartree energ DENC   =     -1156.39883323
  -exchange      EXHF   =         0.00000000
  -V(xc)+E(xc)   XCENC  =       129.70160926
  PAW double counting   =      3375.36710043    -3332.12004931
  entropy T*S    EENTRO =        -0.00000000
  eigenvalues    EBANDS =      -557.84678870
  atomic energy  EATOM  =      4064.89301065
  Solvation  Ediel_sol  =         0.00000000
  ---------------------------------------------------
  free energy    TOTEN  =        -8.31638336 eV

  energy without entropy =       -8.31638336  energy(sigma->0) =       -8.31638336


--------------------------------------------------------------------------------------------------------




--------------------------------------- Iteration      1(   9)  ---------------------------------------


    POTLOK:  cpu time    0.0823: real time    0.0826
    SETDIJ:  cpu time    0.0050: real time    0.0050
     EDDAV:  cpu time    0.5997: real time    0.6001
       DOS:  cpu time    0.0004: real time    0.0004
    CHARGE:  cpu time    0.0571: real time    0.0571
    MIXING:  cpu time    0.0042: real time    0.0041
    --------------------------------------------
      LOOP:  cpu time    0.7486: real time    0.7494

 eigenvalue-minimisations  :  2021
 total energy-change (2. order) : 0.5542705E-03  (-0.1906552E-02)
 number of electron      42.0000003 magnetization 
 augmentation part        6.7136710 magnetization 

 Broyden mixing:
  rms(total) = 0.15234E-01    rms(broyden)= 0.15234E-01
  rms(prec ) = 0.26682E-01
  weight for this iteration     100.00

 eigenvalues of (default mixing * dielectric matrix)
  average eigenvalue GAMMA=   1.7822
  2.3898  2.3898  1.1745  1.1745

 Free energy of the ion-electron system (eV)
  ---------------------------------------------------
  alpha Z        PSCENC =       139.65821781
  Ewald energy   TEWEN  =     -2671.57065026
  -Hartree energ DENC   =     -1157.29876450
  -exchange      EXHF   =         0.00000000
  -V(xc)+E(xc)   XCENC  =       129.73911248
  PAW double counting   =      3382.20927848    -3338.91670157
  entropy T*S    EENTRO =        -0.00000005
  eigenvalues    EBANDS =      -557.02933213
  atomic energy  EATOM  =      4064.89301065
  Solvation  Ediel_sol  =         0.00000000
  ---------------------------------------------------
  free energy    TOTEN  =        -8.31582909 eV

  energy without entropy =       -8.31582905  energy(sigma->0) =       -8.31582907


--------------------------------------------------------------------------------------------------------




--------------------------------------- Iteration      1(  10)  ---------------------------------------


    POTLOK:  cpu time    0.0823: real time    0.0826
    SETDIJ:  cpu time    0.0049: real time    0.0049
     EDDAV:  cpu time    0.5356: real time    0.5359
       DOS:  cpu time    0.0004: real time    0.0004
    CHARGE:  cpu time    0.0590: real time    0.0590
    MIXING:  cpu time    0.0045: real time    0.0045
    --------------------------------------------
      LOOP:  cpu time    0.6867: real time    0.6875

 eigenvalue-minimisations  :  1844
 total energy-change (2. order) :-0.2873520E-03  (-0.2423551E-03)
 number of electron      42.0000003 magnetization 
 augmentation part        6.7130483 magnetization 

 Broyden mixing:
  rms(total) = 0.35976E-02    rms(broyden)= 0.35975E-02
  rms(prec ) = 0.82394E-02
  weight for this iteration     100.00

 eigenvalues of (default mixing * dielectric matrix)
  average eigenvalue GAMMA=   1.9091
  3.0485  2.0874  2.0874  1.0589  1.2635

 Free energy of the ion-electron system (eV)
  ---------------------------------------------------
  alpha Z        PSCENC =       139.65821781
  Ewald energy   TEWEN  =     -2671.57065026
  -Hartree energ DENC   =     -1157.63584569
  -exchange      EXHF   =         0.00000000
  -V(xc)+E(xc)   XCENC  =       129.76662533
  PAW double counting   =      3382.92352820    -3339.25633777
  entropy T*S    EENTRO =        -0.00000002
  eigenvalues    EBANDS =      -557.09466468
  atomic energy  EATOM  =      4064.89301065
  Solvation  Ediel_sol  =         0.00000000
  ---------------------------------------------------
  free energy    TOTEN  =        -8.31611645 eV

  energy without entropy =       -8.31611643  energy(sigma->0) =       -8.31611644


--------------------------------------------------------------------------------------------------------




--------------------------------------- Iteration      1(  11)  ---------------------------------------


    POTLOK:  cpu time    0.0831: real time    0.0845
    SETDIJ:  cpu time    0.0053: real time    0.0053
     EDDAV:  cpu time    0.5510: real time    0.5514
       DOS:  cpu time    0.0004: real time    0.0004
    CHARGE:  cpu time    0.0570: real time    0.0570
    MIXING:  cpu time    0.0044: real time    0.0044
    --------------------------------------------
      LOOP:  cpu time    0.7013: real time    0.7030

 eigenvalue-minimisations  :  1861
 total energy-change (2. order) :-0.1833249E-04  (-0.3770467E-04)
 number of electron      42.0000003 magnetization 
 augmentation part        6.7143140 magnetization 

 Broyden mixing:
  rms(total) = 0.16876E-02    rms(broyden)= 0.16875E-02
  rms(prec ) = 0.22395E-02
  weight for this iteration     100.00

 eigenvalues of (default mixing * dielectric matrix)
  average eigenvalue GAMMA=   1.7292
  2.7449  2.3224  1.8435  1.0740  1.0740  1.3167

 Free energy of the ion-electron system (eV)
  ---------------------------------------------------
  alpha Z        PSCENC =       139.65821781
  Ewald energy   TEWEN  =     -2671.57065026
  -Hartree energ DENC   =     -1157.53682437
  -exchange      EXHF   =         0.00000000
  -V(xc)+E(xc)   XCENC  =       129.76508917
  PAW double counting   =      3385.59234187    -3341.90810182
  entropy T*S    EENTRO =        -0.00000002
  eigenvalues    EBANDS =      -557.20921781
  atomic energy  EATOM  =      4064.89301065
  Solvation  Ediel_sol  =         0.00000000
  ---------------------------------------------------
  free energy    TOTEN  =        -8.31613478 eV

  energy without entropy =       -8.31613476  energy(sigma->0) =       -8.31613477


--------------------------------------------------------------------------------------------------------




--------------------------------------- Iteration      1(  12)  ---------------------------------------


    POTLOK:  cpu time    0.0815: real time    0.0821
    SETDIJ:  cpu time    0.0053: real time    0.0053
     EDDAV:  cpu time    0.5851: real time    0.5858
       DOS:  cpu time    0.0004: real time    0.0005
    CHARGE:  cpu time    0.0576: real time    0.0576
    MIXING:  cpu time    0.0043: real time    0.0043
    --------------------------------------------
      LOOP:  cpu time    0.7344: real time    0.7356

 eigenvalue-minimisations  :  2050
 total energy-change (2. order) : 0.1882929E-05  (-0.3123365E-05)
 number of electron      42.0000003 magnetization 
 augmentation part        6.7141475 magnetization 

 Broyden mixing:
  rms(total) = 0.42265E-03    rms(broyden)= 0.42265E-03
  rms(prec ) = 0.70073E-03
  weight for this iteration     100.00

 eigenvalues of (default mixing * dielectric matrix)
  average eigenvalue GAMMA=   1.7991
  2.9935  2.5765  1.8792  1.8792  0.9444  1.1606  1.1606

 Free energy of the ion-electron system (eV)
  ---------------------------------------------------
  alpha Z        PSCENC =       139.65821781
  Ewald energy   TEWEN  =     -2671.57065026
  -Hartree energ DENC   =     -1157.58582076
  -exchange      EXHF   =         0.00000000
  -V(xc)+E(xc)   XCENC  =       129.76659858
  PAW double counting   =      3385.27135299    -3341.60453028
  entropy T*S    EENTRO =        -0.00000002
  eigenvalues    EBANDS =      -557.14431160
  atomic energy  EATOM  =      4064.89301065
  Solvation  Ediel_sol  =         0.00000000
  ---------------------------------------------------
  free energy    TOTEN  =        -8.31613289 eV

  energy without entropy =       -8.31613287  energy(sigma->0) =       -8.31613288


--------------------------------------------------------------------------------------------------------




--------------------------------------- Iteration      1(  13)  ---------------------------------------


    POTLOK:  cpu time    0.0824: real time    0.0828
    SETDIJ:  cpu time    0.0049: real time    0.0049
     EDDAV:  cpu time    0.6863: real time    0.6869
       DOS:  cpu time    0.0004: real time    0.0004
    CHARGE:  cpu time    0.0575: real time    0.0575
    MIXING:  cpu time    0.0042: real time    0.0042
    --------------------------------------------
      LOOP:  cpu time    0.8358: real time    0.8369

 eigenvalue-minimisations  :  2421
 total energy-change (2. order) :-0.9603518E-06  (-0.4322147E-06)
 number of electron      42.0000003 magnetization 
 augmentation part        6.7142000 magnetization 

 Broyden mixing:
  rms(total) = 0.24638E-03    rms(broyden)= 0.24638E-03
  rms(prec ) = 0.64901E-03
  weight for this iteration     100.00

 eigenvalues of (default mixing * dielectric matrix)
  average eigenvalue GAMMA=   1.7901
  3.2704  2.4164  2.4164  1.8734  1.2189  1.1072  1.1072  0.9110

 Free energy of the ion-electron system (eV)
  ---------------------------------------------------
  alpha Z        PSCENC =       139.65821781
  Ewald energy   TEWEN  =     -2671.57065026
  -Hartree energ DENC   =     -1157.57955603
  -exchange      EXHF   =         0.00000000
  -V(xc)+E(xc)   XCENC  =       129.76674033
  PAW double counting   =      3385.05382677    -3341.38933952
  entropy T*S    EENTRO =        -0.00000002
  eigenvalues    EBANDS =      -557.14838357
  atomic energy  EATOM  =      4064.89301065
  Solvation  Ediel_sol  =         0.00000000
  ---------------------------------------------------
  free energy    TOTEN  =        -8.31613385 eV

  energy without entropy =       -8.31613383  energy(sigma->0) =       -8.31613384


--------------------------------------------------------------------------------------------------------




--------------------------------------- Iteration      1(  14)  ---------------------------------------


    POTLOK:  cpu time    0.0821: real time    0.0826
    SETDIJ:  cpu time    0.0046: real time    0.0046
     EDDAV:  cpu time    0.5749: real time    0.5754
       DOS:  cpu time    0.0004: real time    0.0004
    CHARGE:  cpu time    0.0595: real time    0.0596
    MIXING:  cpu time    0.0044: real time    0.0044
    --------------------------------------------
      LOOP:  cpu time    0.7260: real time    0.7271

 eigenvalue-minimisations  :  1896
 total energy-change (2. order) : 0.2088909E-06  (-0.1859277E-06)
 number of electron      42.0000003 magnetization 
 augmentation part        6.7142332 magnetization 

 Broyden mixing:
  rms(total) = 0.28121E-04    rms(broyden)= 0.28119E-04
  rms(prec ) = 0.52420E-04
  weight for this iteration     100.00

 eigenvalues of (default mixing * dielectric matrix)
  average eigenvalue GAMMA=   1.7522
  3.2269  2.4540  2.4540  1.7753  1.6097  1.1417  1.1417  0.9831  0.9831

 Free energy of the ion-electron system (eV)
  ---------------------------------------------------
  alpha Z        PSCENC =       139.65821781
  Ewald energy   TEWEN  =     -2671.57065026
  -Hartree energ DENC   =     -1157.57645053
  -exchange      EXHF   =         0.00000000
  -V(xc)+E(xc)   XCENC  =       129.76667537
  PAW double counting   =      3385.08765137    -3341.42848444
  entropy T*S    EENTRO =        -0.00000002
  eigenvalues    EBANDS =      -557.14610359
  atomic energy  EATOM  =      4064.89301065
  Solvation  Ediel_sol  =         0.00000000
  ---------------------------------------------------
  free energy    TOTEN  =        -8.31613365 eV

  energy without entropy =       -8.31613363  energy(sigma->0) =       -8.31613364


--------------------------------------------------------------------------------------------------------




--------------------------------------- Iteration      1(  15)  ---------------------------------------


    POTLOK:  cpu time    0.0814: real time    0.0818
    SETDIJ:  cpu time    0.0056: real time    0.0056
     EDDAV:  cpu time    0.5230: real time    0.5234
       DOS:  cpu time    0.0004: real time    0.0004
    --------------------------------------------
      LOOP:  cpu time    0.6103: real time    0.6111

 eigenvalue-minimisations  :  1659
 total energy-change (2. order) :-0.4888534E-08  (-0.8417751E-08)
 number of electron      42.0000003 magnetization 
 augmentation part        6.7142332 magnetization 

 Free energy of the ion-electron system (eV)
  ---------------------------------------------------
  alpha Z        PSCENC =       139.65821781
  Ewald energy   TEWEN  =     -2671.57065026
  -Hartree energ DENC   =     -1157.57732129
  -exchange      EXHF   =         0.00000000
  -V(xc)+E(xc)   XCENC  =       129.76668752
  PAW double counting   =      3385.08803472    -3341.42911233
  entropy T*S    EENTRO =        -0.00000002
  eigenvalues    EBANDS =      -557.14500044
  atomic energy  EATOM  =      4064.89301065
  Solvation  Ediel_sol  =         0.00000000
  ---------------------------------------------------
  free energy    TOTEN  =        -8.31613365 eV

  energy without entropy =       -8.31613363  energy(sigma->0) =       -8.31613364


--------------------------------------------------------------------------------------------------------




 average (electrostatic) potential at core
  the test charge radii are     1.0856  1.1312  1.1045
  (the norm of the test charge is              1.0000)
       1-107.2914       2 -50.8650       3 -36.5113       4 -36.5113
 
 
 
 E-fermi :   1.9703     XC(G=0):  -7.6422     alpha+bet : -7.3764


 k-point     1 :       0.0000    0.0000    0.0000
  band No.  band energies     occupation 
      1     -29.2395      2.00000
      2     -29.2308      2.00000
      3     -21.1320      2.00000
      4     -19.0806      2.00000
      5     -19.0806      2.00000
      6     -19.0806      2.00000
      7     -19.0763      2.00000
      8     -19.0763      2.00000
      9     -12.7703      2.00000
     10     -12.7703      2.00000
     11     -12.7703      2.00000
     12     -12.7238      2.00000
     13     -12.7238      2.00000
     14     -12.7238      2.00000
     15      -7.9816      2.00000
     16      -7.9816      2.00000
     17      -7.9816      2.00000
     18      -7.0831      2.00000
     19       1.8133      1.99999
     20       1.8133      1.99999
     21       1.8133      1.99999
     22       2.1172      0.00003
     23       3.9693      0.00000
     24       3.9693      0.00000
     25       4.3649      0.00000

 k-point     2 :       0.1250    0.0000    0.0000
  band No.  band energies     occupation 
      1     -29.2392      2.00000
      2     -29.2311      2.00000
      3     -21.1321      2.00000
      4     -19.0806      2.00000
      5     -19.0806      2.00000
      6     -19.0806      2.00000
      7     -19.0764      2.00000
      8     -19.0764      2.00000
      9     -12.7703      2.00000
     10     -12.7689      2.00000
     11     -12.7689      2.00000
     12     -12.7259      2.00000
     13     -12.7259      2.00000
     14     -12.7249      2.00000
     15      -7.9989      2.00000
     16      -7.9806      2.00000
     17      -7.9806      2.00000
     18      -7.0547      2.00000
     19       1.3314      2.00000
     20       1.7444      2.00000
     21       1.7444      2.00000
     22       2.7409      0.00000
     23       4.1597      0.00000
     24       4.1597      0.00000
     25       4.3035      0.00000

 k-point     3 :       0.2500    0.0000    0.0000
  band No.  band energies     occupation 
      1     -29.2382      2.00000
      2     -29.2321      2.00000
      3     -21.1324      2.00000
      4     -19.0805      2.00000
      5     -19.0805      2.00000
      6     -19.0804      2.00000
      7     -19.0764      2.00000
      8     -19.0764      2.00000
      9     -12.7685      2.00000
     10     -12.7646      2.00000
     11     -12.7646      2.00000
     12     -12.7315      2.00000
     13     -12.7315      2.00000
     14     -12.7293      2.00000
     15      -8.0331      2.00000
     16      -7.9782      2.00000
     17      -7.9782      2.00000
     18      -6.9950      2.00000
     19       0.9066      2.00000
     20       1.6068      2.00000
     21       1.6068      2.00000
     22       3.4328      0.00000
     23       4.4087      0.00000
     24       4.5592      0.00000
     25       4.6113      0.00000

 k-point     4 :       0.3750    0.0000    0.0000
  band No.  band energies     occupation 
      1     -29.2367      2.00000
      2     -29.2334      2.00000
      3     -21.1326      2.00000
      4     -19.0805      2.00000
      5     -19.0805      2.00000
      6     -19.0802      2.00000
      7     -19.0764      2.00000
      8     -19.0764      2.00000
      9     -12.7630      2.00000
     10     -12.7579      2.00000
     11     -12.7579      2.00000
     12     -12.7396      2.00000
     13     -12.7396      2.00000
     14     -12.7374      2.00000
     15      -8.0590      2.00000
     16      -7.9759      2.00000
     17      -7.9759      2.00000
     18      -6.9453      2.00000
     19       0.6521      2.00000
     20       1.4957      2.00000
     21       1.4957      2.00000
     22       3.8260      0.00000
     23       4.7679      0.00000
     24       4.7679      0.00000
     25       4.9613      0.00000

 k-point     5 :       0.5000    0.0000    0.0000
  band No.  band energies     occupation 
      1     -29.2351      2.00000
      2     -29.2351      2.00000
      3     -21.1327      2.00000
      4     -19.0805      2.00000
      5     -19.0805      2.00000
      6     -19.0802      2.00000
      7     -19.0764      2.00000
      8     -19.0764      2.00000
      9     -12.7576      2.00000
     10     -12.7509      2.00000
     11     -12.7509      2.00000
     12     -12.7471      2.00000
     13     -12.7471      2.00000
     14     -12.7440      2.00000
     15      -8.0677      2.00000
     16      -7.9749      2.00000
     17      -7.9749      2.00000
     18      -6.9272      2.00000
     19       0.5660      2.00000
     20       1.4552      2.00000
     21       1.4552      2.00000
     22       4.0534      0.00000
     23       4.8895      0.00000
     24       4.8895      0.00000
     25       4.9691      0.00000

 k-point     6 :       0.1250    0.1250    0.0000
  band No.  band energies     occupation 
      1     -29.2391      2.00000
      2     -29.2312      2.00000
      3     -21.1322      2.00000
      4     -19.0806      2.00000
      5     -19.0806      2.00000
      6     -19.0806      2.00000
      7     -19.0764      2.00000
      8     -19.0764      2.00000
      9     -12.7732      2.00000
     10     -12.7732      2.00000
     11     -12.7612      2.00000
     12     -12.7335      2.00000
     13     -12.7222      2.00000
     14     -12.7222      2.00000
     15      -8.0025      2.00000
     16      -7.9805      2.00000
     17      -7.9805      2.00000
     18      -7.0483      2.00000
     19       1.2138      2.00000
     20       1.7917      2.00000
     21       1.7917      2.00000
     22       2.7601      0.00000
     23       4.0728      0.00000
     24       4.1164      0.00000
     25       4.3870      0.00000

 k-point     7 :       0.2500    0.1250    0.0000
  band No.  band energies     occupation 
      1     -29.2383      2.00000
      2     -29.2319      2.00000
      3     -21.1324      2.00000
      4     -19.0805      2.00000
      5     -19.0805      2.00000
      6     -19.0804      2.00000
      7     -19.0764      2.00000
      8     -19.0764      2.00000
      9     -12.7746      2.00000
     10     -12.7740      2.00000
     11     -12.7520      2.00000
     12     -12.7436      2.00000
     13     -12.7228      2.00000
     14     -12.7226      2.00000
     15      -8.0256      2.00000
     16      -7.9794      2.00000
     17      -7.9787      2.00000
     18      -7.0067      2.00000
     19       0.9339      2.00000
     20       1.6553      2.00000
     21       1.7153      2.00000
     22       3.2855      0.00000
     23       3.9953      0.00000
     24       4.3465      0.00000
     25       4.6826      0.00000

 k-point     8 :       0.3750    0.1250    0.0000
  band No.  band energies     occupation 
      1     -29.2371      2.00000
      2     -29.2331      2.00000
      3     -21.1326      2.00000
      4     -19.0805      2.00000
      5     -19.0805      2.00000
      6     -19.0803      2.00000
      7     -19.0764      2.00000
      8     -19.0764      2.00000
      9     -12.7725      2.00000
     10     -12.7709      2.00000
     11     -12.7545      2.00000
     12     -12.7420      2.00000
     13     -12.7277      2.00000
     14     -12.7272      2.00000
     15      -8.0470      2.00000
     16      -7.9789      2.00000
     17      -7.9764      2.00000
     18      -6.9626      2.00000
     19       0.7446      2.00000
     20       1.4776      2.00000
     21       1.5890      2.00000
     22       3.7161      0.00000
     23       4.3374      0.00000
     24       4.8065      0.00000
     25       4.9269      0.00000

 k-point     9 :       0.5000    0.1250    0.0000
  band No.  band energies     occupation 
      1     -29.2356      2.00000
      2     -29.2345      2.00000
      3     -21.1328      2.00000
      4     -19.0805      2.00000
      5     -19.0805      2.00000
      6     -19.0802      2.00000
      7     -19.0764      2.00000
      8     -19.0764      2.00000
      9     -12.7708      2.00000
     10     -12.7640      2.00000
     11     -12.7593      2.00000
     12     -12.7370      2.00000
     13     -12.7346      2.00000
     14     -12.7323      2.00000
     15      -8.0567      2.00000
     16      -7.9794      2.00000
     17      -7.9748      2.00000
     18      -6.9389      2.00000
     19       0.6566      2.00000
     20       1.3993      2.00000
     21       1.4915      2.00000
     22       4.0259      0.00000
     23       4.7062      0.00000
     24       4.8981      0.00000
     25       4.9021      0.00000

 k-point    10 :      -0.3750    0.1250    0.0000
  band No.  band energies     occupation 
      1     -29.2361      2.00000
      2     -29.2341      2.00000
      3     -21.1328      2.00000
      4     -19.0805      2.00000
      5     -19.0804      2.00000
      6     -19.0802      2.00000
      7     -19.0764      2.00000
      8     -19.0764      2.00000
      9     -12.7757      2.00000
     10     -12.7544      2.00000
     11     -12.7531      2.00000
     12     -12.7461      2.00000
     13     -12.7437      2.00000
     14     -12.7244      2.00000
     15      -8.0549      2.00000
     16      -7.9801      2.00000
     17      -7.9749      2.00000
     18      -6.9424      2.00000
     19       0.6735      2.00000
     20       1.4449      2.00000
     21       1.4599      2.00000
     22       4.0059      0.00000
     23       4.6903      0.00000
     24       4.7354      0.00000
     25       4.9221      0.00000

 k-point    11 :      -0.2500    0.1250    0.0000
  band No.  band energies     occupation 
      1     -29.2375      2.00000
      2     -29.2327      2.00000
      3     -21.1325      2.00000
      4     -19.0805      2.00000
      5     -19.0805      2.00000
      6     -19.0803      2.00000
      7     -19.0764      2.00000
      8     -19.0764      2.00000
      9     -12.7780      2.00000
     10     -12.7589      2.00000
     11     -12.7533      2.00000
     12     -12.7433      2.00000
     13     -12.7394      2.00000
     14     -12.7201      2.00000
     15      -8.0415      2.00000
     16      -7.9806      2.00000
     17      -7.9766      2.00000
     18      -6.9726      2.00000
     19       0.8008      2.00000
     20       1.5053      2.00000
     21       1.5905      2.00000
     22       3.6730      0.00000
     23       4.3489      0.00000
     24       4.5385      0.00000
     25       4.7261      0.00000

 k-point    12 :      -0.1250    0.1250    0.0000
  band No.  band energies     occupation 
      1     -29.2386      2.00000
      2     -29.2316      2.00000
      3     -21.1323      2.00000
      4     -19.0806      2.00000
      5     -19.0805      2.00000
      6     -19.0805      2.00000
      7     -19.0764      2.00000
      8     -19.0764      2.00000
      9     -12.7755      2.00000
     10     -12.7654      2.00000
     11     -12.7620      2.00000
     12     -12.7333      2.00000
     13     -12.7309      2.00000
     14     -12.7207      2.00000
     15      -8.0183      2.00000
     16      -7.9806      2.00000
     17      -7.9790      2.00000
     18      -7.0196      2.00000
     19       1.0446      2.00000
     20       1.6170      2.00000
     21       1.7409      2.00000
     22       3.1668      0.00000
     23       4.1899      0.00000
     24       4.3362      0.00000
     25       4.4248      0.00000

 k-point    13 :       0.2500    0.2500    0.0000
  band No.  band energies     occupation 
      1     -29.2380      2.00000
      2     -29.2322      2.00000
      3     -21.1325      2.00000
      4     -19.0805      2.00000
      5     -19.0805      2.00000
      6     -19.0804      2.00000
      7     -19.0764      2.00000
      8     -19.0764      2.00000
      9     -12.7799      2.00000
     10     -12.7799      2.00000
     11     -12.7567      2.00000
     12     -12.7388      2.00000
     13     -12.7183      2.00000
     14     -12.7183      2.00000
     15      -8.0301      2.00000
     16      -7.9778      2.00000
     17      -7.9778      2.00000
     18      -6.9990      2.00000
     19       0.8371      2.00000
     20       1.7488      2.00000
     21       1.7488      2.00000
     22       3.3539      0.00000
     23       3.6313      0.00000
     24       4.3811      0.00000
     25       4.8695      0.00000

[...]
  band No.  band energies     occupation 
      1     -29.2364      2.00000
      2     -29.2337      2.00000
      3     -21.1331      2.00000
      4     -19.0804      2.00000
      5     -19.0803      2.00000
      6     -19.0802      2.00000
      7     -19.0763      2.00000
      8     -19.0763      2.00000
      9     -12.7914      2.00000
     10     -12.7861      2.00000
     11     -12.7809      2.00000
     12     -12.7164      2.00000
     13     -12.7155      2.00000
     14     -12.7098      2.00000
     15      -8.0234      2.00000
     16      -7.9812      2.00000
     17      -7.9743      2.00000
     18      -6.9936      2.00000
     19       0.9394      2.00000
     20       1.5372      2.00000
     21       1.6687      2.00000
     22       3.3197      0.00000
     23       3.8776      0.00000
     24       4.7889      0.00000
     25       5.1718      0.00000

 k-point    20 :      -0.3750    0.3750    0.0000
  band No.  band energies     occupation 
      1     -29.2356      2.00000
      2     -29.2345      2.00000
      3     -21.1331      2.00000
      4     -19.0804      2.00000
      5     -19.0803      2.00000
      6     -19.0802      2.00000
      7     -19.0763      2.00000
      8     -19.0763      2.00000
      9     -12.7937      2.00000
     10     -12.7796      2.00000
     11     -12.7726      2.00000
     12     -12.7248      2.00000
     13     -12.7213      2.00000
     14     -12.7087      2.00000
     15      -8.0103      2.00000
     16      -8.0019      2.00000
     17      -7.9738      2.00000
     18      -6.9790      2.00000
     19       1.0750      2.00000
     20       1.1973      2.00000
     21       1.5783      2.00000
     22       3.6655      0.00000
     23       4.2150      0.00000
     24       4.8703      0.00000
     25       5.0189      0.00000

 k-point    21 :       0.5000    0.5000    0.0000
  band No.  band energies     occupation 
      1     -29.2364      2.00000
      2     -29.2336      2.00000
      3     -21.1331      2.00000
      4     -19.0803      2.00000
      5     -19.0803      2.00000
      6     -19.0802      2.00000
      7     -19.0763      2.00000
      8     -19.0762      2.00000
      9     -12.7893      2.00000
     10     -12.7893      2.00000
     11     -12.7893      2.00000
     12     -12.7128      2.00000
     13     -12.7128      2.00000
     14     -12.7069      2.00000
     15      -8.0240      2.00000
     16      -7.9741      2.00000
     17      -7.9741      2.00000
     18      -7.0047      2.00000
     19       0.9475      2.00000
     20       1.7055      2.00000
     21       1.7055      2.00000
     22       3.0968      0.00000
     23       3.6675      0.00000
     24       4.7922      0.00000
     25       5.4523      0.00000

 k-point    22 :       0.3750    0.2500    0.1250
  band No.  band energies     occupation 
      1     -29.2376      2.00000
      2     -29.2326      2.00000
      3     -21.1326      2.00000
      4     -19.0805      2.00000
      5     -19.0804      2.00000
      6     -19.0804      2.00000
      7     -19.0764      2.00000
      8     -19.0763      2.00000
      9     -12.7817      2.00000
     10     -12.7700      2.00000
     11     -12.7556      2.00000
     12     -12.7405      2.00000
     13     -12.7287      2.00000
     14     -12.7170      2.00000
     15      -8.0363      2.00000
     16      -7.9808      2.00000
     17      -7.9771      2.00000
     18      -6.9803      2.00000
     19       0.8150      2.00000
     20       1.5674      2.00000
     21       1.6335      2.00000
     22       3.6638      0.00000
     23       3.8956      0.00000
     24       4.6251      0.00000
     25       4.7798      0.00000

 k-point    23 :       0.5000    0.2500    0.1250
  band No.  band energies     occupation 
      1     -29.2364      2.00000
      2     -29.2337      2.00000
      3     -21.1328      2.00000
      4     -19.0804      2.00000
      5     -19.0804      2.00000
      6     -19.0803      2.00000
      7     -19.0764      2.00000
      8     -19.0763      2.00000
      9     -12.7849      2.00000
     10     -12.7666      2.00000
     11     -12.7614      2.00000
     12     -12.7384      2.00000
     13     -12.7299      2.00000
     14     -12.7166      2.00000
     15      -8.0399      2.00000
     16      -7.9845      2.00000
     17      -7.9759      2.00000
     18      -6.9598      2.00000
     19       0.7924      2.00000
     20       1.4168      2.00000
     21       1.5147      2.00000
     22       3.9267      0.00000
     23       4.3241      0.00000
     24       4.6547      0.00000
     25       5.0026      0.00000

 k-point    24 :      -0.3750    0.2500    0.1250
  band No.  band energies     occupation 
      1     -29.2351      2.00000
      2     -29.2351      2.00000
      3     -21.1329      2.00000
      4     -19.0804      2.00000
      5     -19.0804      2.00000
      6     -19.0802      2.00000
      7     -19.0764      2.00000
      8     -19.0763      2.00000
      9     -12.7852      2.00000
     10     -12.7711      2.00000
     11     -12.7522      2.00000
     12     -12.7483      2.00000
     13     -12.7220      2.00000
     14     -12.7207      2.00000
     15      -8.0394      2.00000
     16      -7.9868      2.00000
     17      -7.9755      2.00000
     18      -6.9529      2.00000
     19       0.8043      2.00000
     20       1.3239      2.00000
     21       1.4836      2.00000
     22       4.1766      0.00000
     23       4.3285      0.00000
     24       4.8874      0.00000
     25       4.9002      0.00000

 k-point    25 :       0.5000    0.3750    0.1250
  band No.  band energies     occupation 
      1     -29.2365      2.00000
      2     -29.2336      2.00000
      3     -21.1329      2.00000
      4     -19.0804      2.00000
      5     -19.0804      2.00000
      6     -19.0803      2.00000
      7     -19.0763      2.00000
      8     -19.0763      2.00000
      9     -12.7905      2.00000
     10     -12.7761      2.00000
     11     -12.7758      2.00000
     12     -12.7255      2.00000
     13     -12.7175      2.00000
     14     -12.7134      2.00000
     15      -8.0289      2.00000
     16      -7.9811      2.00000
     17      -7.9779      2.00000
     18      -6.9805      2.00000
     19       0.8758      2.00000
     20       1.5396      2.00000
     21       1.5552      2.00000
     22       3.5994      0.00000
     23       3.9893      0.00000
     24       4.7691      0.00000
     25       5.0401      0.00000

 k-point    26 :      -0.3750    0.3750    0.1250
  band No.  band energies     occupation 
      1     -29.2356      2.00000
      2     -29.2345      2.00000
      3     -21.1330      2.00000
      4     -19.0804      2.00000
      5     -19.0803      2.00000
      6     -19.0802      2.00000
      7     -19.0763      2.00000
      8     -19.0763      2.00000
      9     -12.7953      2.00000
     10     -12.7778      2.00000
     11     -12.7651      2.00000
     12     -12.7366      2.00000
     13     -12.7142      2.00000
     14     -12.7114      2.00000
     15      -8.0165      2.00000
     16      -7.9933      2.00000
     17      -7.9784      2.00000
     18      -6.9754      2.00000
     19       1.0163      2.00000
     20       1.2803      2.00000
     21       1.4979      2.00000
     22       3.8672      0.00000
     23       4.2250      0.00000
     24       4.6850      0.00000
     25       4.9101      0.00000

 k-point    27 :      -0.2500    0.3750    0.1250
  band No.  band energies     occupation 
      1     -29.2355      2.00000
      2     -29.2346      2.00000
      3     -21.1330      2.00000
      4     -19.0804      2.00000
      5     -19.0803      2.00000
      6     -19.0803      2.00000
      7     -19.0764      2.00000
      8     -19.0763      2.00000
      9     -12.7935      2.00000
     10     -12.7741      2.00000
     11     -12.7517      2.00000
     12     -12.7498      2.00000
     13     -12.7201      2.00000
     14     -12.7110      2.00000
     15      -8.0210      2.00000
     16      -7.9955      2.00000
     17      -7.9770      2.00000
     18      -6.9665      2.00000
     19       0.9662      2.00000
     20       1.2625      2.00000
     21       1.4688      2.00000
     22       4.1674      0.00000
     23       4.3739      0.00000
     24       4.3796      0.00000
     25       5.0556      0.00000

 k-point    28 :      -0.3750    0.5000    0.1250
  band No.  band energies     occupation 
      1     -29.2360      2.00000
      2     -29.2340      2.00000
      3     -21.1331      2.00000
      4     -19.0803      2.00000
      5     -19.0803      2.00000
      6     -19.0802      2.00000
      7     -19.0763      2.00000
      8     -19.0762      2.00000
      9     -12.7968      2.00000
     10     -12.7819      2.00000
     11     -12.7783      2.00000
     12     -12.7242      2.00000
     13     -12.7120      2.00000
     14     -12.7077      2.00000
     15      -8.0165      2.00000
     16      -7.9812      2.00000
     17      -7.9810      2.00000
     18      -6.9920      2.00000
     19       1.0115      2.00000
     20       1.5029      2.00000
     21       1.5245      2.00000
     22       3.4906      0.00000
     23       3.8993      0.00000
     24       4.8174      0.00000
     25       5.0986      0.00000

 k-point    29 :      -0.2500    0.5000    0.2500
  band No.  band energies     occupation 
      1     -29.2350      2.00000
      2     -29.2350      2.00000
      3     -21.1331      2.00000
      4     -19.0803      2.00000
      5     -19.0803      2.00000
      6     -19.0803      2.00000
      7     -19.0763      2.00000
      8     -19.0762      2.00000
      9     -12.7999      2.00000
     10     -12.7788      2.00000
     11     -12.7514      2.00000
     12     -12.7514      2.00000
     13     -12.7105      2.00000
     14     -12.7092      2.00000
     15      -7.9987      2.00000
     16      -7.9987      2.00000
     17      -7.9877      2.00000
     18      -6.9795      2.00000
     19       1.2048      2.00000
     20       1.2048      2.00000
     21       1.3760      2.00000
     22       4.0700      0.00000
     23       4.3091      0.00000
     24       4.3091      0.00000
     25       4.8400      0.00000


--------------------------------------------------------------------------------------------------------


 soft charge-density along one line, spin component           1
         0         1         2         3         4         5         6         7         8         9
 total charge-density along one line
 
 pseudopotential strength for first ion, spin component:           1
-19.441  -0.000   0.000  -0.000   0.000   5.065   0.000  -0.000
 -0.000 -19.441  -0.000  -0.000   0.000   0.000   5.065   0.000
  0.000  -0.000 -19.441  -0.000  -0.000  -0.000   0.000   5.064
 -0.000  -0.000  -0.000 -19.441  -0.000   0.000   0.000   0.000
  0.000   0.000  -0.000  -0.000 -19.441  -0.000  -0.000   0.000
  5.065   0.000  -0.000   0.000  -0.000   5.263  -0.000   0.000
  0.000   5.065   0.000   0.000  -0.000  -0.000   5.263  -0.000
 -0.000   0.000   5.064   0.000   0.000   0.000  -0.000   5.263
  0.000   0.000   0.000   5.065   0.000  -0.000  -0.000  -0.000
 -0.000  -0.000   0.000   0.000   5.064  -0.000   0.000  -0.000
  0.000   0.000  -0.000   0.000  -0.000   0.000   0.000  -0.000
  0.000   0.000  -0.000   0.000  -0.000  -0.000  -0.000   0.000
  0.000   0.000  -0.000   0.000  -0.000   0.000   0.000  -0.000
  0.000   0.000   0.000   0.000   0.000   0.000   0.000   0.000
  0.000   0.000  -0.000   0.000   0.000   0.000   0.000  -0.000
  0.000   0.000  -0.000   0.000  -0.000   0.000   0.000  -0.000
  0.000   0.000   0.000   0.000   0.000   0.000   0.000   0.000
  0.000   0.000  -0.000   0.000   0.000   0.000   0.000  -0.000
 total augmentation occupancy for first ion, spin component:           1
  1.999   0.000   0.000   0.000   0.000   0.003   0.000  -0.000   0.000   0.000   0.000   0.000  -0.000   0.000  -0.000   0.000
 -0.000   1.999   0.000  -0.000  -0.000   0.000   0.003   0.000  -0.000   0.000   0.000   0.000   0.000   0.000   0.000  -0.000
  0.000   0.000   1.999   0.000   0.000   0.000   0.000   0.002  -0.000  -0.000   0.000   0.000  -0.000  -0.000   0.000   0.000
  0.000   0.000   0.000   1.999  -0.000   0.000   0.000   0.000   0.003   0.000  -0.000   0.000   0.000   0.000  -0.000   0.000
  0.000   0.000   0.000  -0.000   1.999   0.000   0.000   0.000  -0.000   0.002   0.000   0.000   0.000   0.000  -0.000  -0.000
  0.003   0.000  -0.000   0.000  -0.000   0.000   0.000   0.000  -0.000   0.000  -0.000  -0.000  -0.000  -0.000  -0.000   0.000
  0.000   0.003   0.000  -0.000   0.000  -0.000   0.000   0.000   0.000  -0.000   0.000   0.000  -0.000   0.000   0.000  -0.000
 -0.000  -0.000   0.002  -0.000   0.000   0.000   0.000   0.000  -0.000   0.000   0.000  -0.000   0.000   0.000  -0.000   0.000
  0.000  -0.000   0.000   0.003   0.000   0.000   0.000   0.000   0.000   0.000   0.000  -0.000   0.000  -0.000  -0.000   0.000
 -0.000  -0.000  -0.000  -0.000   0.002  -0.000  -0.000   0.000   0.000   0.000   0.000   0.000   0.000  -0.000   0.000   0.000
  0.000   0.000   0.000  -0.000   0.000   0.000   0.000   0.000   0.000   0.000   1.925   0.023  -0.000  -0.000  -0.000   0.000
  0.000  -0.000   0.000   0.000   0.000   0.000  -0.000  -0.000   0.000   0.000   0.023   0.001  -0.000  -0.000  -0.000   0.000
  0.000   0.000  -0.000  -0.000  -0.000  -0.000   0.000  -0.000  -0.000  -0.000   0.000   0.000   1.406   0.000  -0.000  -0.065
  0.000  -0.000   0.000  -0.000  -0.000  -0.000  -0.000   0.000   0.000   0.000   0.000   0.000   0.000   1.406   0.000   0.000
  0.000   0.000   0.000  -0.000   0.000  -0.000  -0.000  -0.000  -0.000  -0.000   0.000   0.000   0.000  -0.000   1.406   0.000
 -0.000   0.000   0.000  -0.000   0.000   0.000   0.000   0.000  -0.000  -0.000  -0.000   0.000  -0.065  -0.000  -0.000   0.003
  0.000  -0.000   0.000  -0.000   0.000  -0.000  -0.000   0.000   0.000  -0.000   0.000   0.000  -0.000  -0.065  -0.000  -0.000
 -0.000  -0.000   0.000  -0.000  -0.000  -0.000  -0.000  -0.000   0.000   0.000   0.000   0.000  -0.000  -0.000  -0.065   0.000


------------------------ aborting loop because EDIFF is reached ----------------------------------------


    CHARGE:  cpu time    0.0571: real time    0.0572
    FORLOC:  cpu time    0.0082: real time    0.0083
    FORNL :  cpu time    0.0790: real time    0.0790
    STRESS:  cpu time    0.2717: real time    0.2720
    FORCOR:  cpu time    0.0910: real time    0.0910
    FORHAR:  cpu time    0.0238: real time    0.0238
    MIXING:  cpu time    0.0044: real time    0.0044
    OFIELD:  cpu time    0.0001: real time    0.0001

  FORCE on cell =-STRESS in cart. coord.  units (eV):
  Direction    XX          YY          ZZ          XY          YZ          ZX
  --------------------------------------------------------------------------------------
  Alpha Z   139.65822   139.65822   139.65822
  Ewald    -890.52430  -890.52430  -890.52430     0.00010     0.00010     0.00010
  Hartree   385.85905   385.85905   385.85905     0.00002     0.00002     0.00002
  E(xc)    -180.75359  -180.75359  -180.75359     0.00000     0.00000     0.00000
  Local     -98.65748   -98.65748   -98.65748    -0.00013    -0.00013    -0.00013
  n-local     1.77289     1.81715     0.31237     1.21054    -0.98363     0.63831
  augment   137.42994   137.42994   137.42994     0.00001     0.00001     0.00001
  Kinetic   506.65620   506.21739   504.24429     2.25777    -1.89390     1.31860
  Fock        0.00000     0.00000     0.00000     0.00000     0.00000     0.00000
  -------------------------------------------------------------------------------------
  Total       0.01860     0.01860     0.01860     0.00000     0.00000    -0.00000
  in kB       0.16805     0.16805     0.16805     0.00000     0.00000    -0.00000
  external pressure =        0.17 kB  Pullay stress =        0.00 kB


 VOLUME and BASIS-vectors are now :
 -----------------------------------------------------------------------------
  energy-cutoff  :      520.00
  volume of cell :      177.36
      direct lattice vectors                 reciprocal lattice vectors
     0.000000000  4.459359529  4.459359529    -0.112123725  0.112123725  0.112123725
     4.459359529  0.000000000  4.459359529     0.112123725 -0.112123725  0.112123725
     4.459359529  4.459359529  0.000000000     0.112123725  0.112123725 -0.112123725

  length of vectors
     6.306486725  6.306486725  6.306486725     0.194203988  0.194203988  0.194203988


 FORCES acting on ions
    electron-ion (+dipol)            ewald-force                    non-local-force                 convergence-correction
 -----------------------------------------------------------------------------------------------
   -.205E-02 -.205E-02 -.192E-02   -.507E-03 -.507E-03 -.507E-03   -.455E-20 0.138E-20 -.254E-20   0.149E-05 0.149E-05 0.165E-05
   -.619E-03 -.619E-03 -.544E-03   -.175E-03 -.175E-03 -.175E-03   -.529E-21 0.244E-20 0.635E-21   0.155E-06 0.155E-06 0.813E-07
   0.166E-02 0.166E-02 0.176E-02   0.276E-03 0.276E-03 0.276E-03   -.226E-16 -.694E-17 -.154E-16   -.228E-06 -.228E-06 -.226E-06
   0.236E-02 0.236E-02 0.246E-02   0.406E-03 0.406E-03 0.406E-03   0.191E-16 0.104E-16 0.150E-16   -.819E-06 -.819E-06 -.817E-06
 -----------------------------------------------------------------------------------------------
   0.136E-02 0.136E-02 0.175E-02   -.218E-15 0.526E-15 -.158E-14   -.347E-17 0.347E-17 -.436E-18   0.601E-06 0.601E-06 0.691E-06
 
 
 POSITION                                       TOTAL-FORCE (eV/Angst)
 -----------------------------------------------------------------------------------
      2.22968      2.22968      2.22968         0.000000     -0.000000     -0.000000
      6.68904      6.68904      6.68904         0.000000      0.000000      0.000000
      0.00000      0.00000      0.00000         0.000000      0.000000      0.000000
      4.45936      4.45936      4.45936        -0.000000     -0.000000     -0.000000
 -----------------------------------------------------------------------------------
    total drift:                                0.001357      0.001357      0.001755


--------------------------------------------------------------------------------------------------------



  FREE ENERGIE OF THE ION-ELECTRON SYSTEM (eV)
  ---------------------------------------------------
  free  energy   TOTEN  =        -8.31613365 eV

  energy  without entropy=       -8.31613363  energy(sigma->0) =       -8.31613364
 


--------------------------------------------------------------------------------------------------------


    POTLOK:  cpu time    0.0878: real time    0.0879


--------------------------------------------------------------------------------------------------------


     LOOP+:  cpu time   10.8757: real time   10.9004
    4ORBIT:  cpu time    0.0000: real time    0.0000

 total amount of memory used by VASP MPI-rank0    60820. kBytes
=======================================================================

   base      :      30000. kBytes
   nonl-proj :       8688. kBytes
   fftplans  :       4868. kBytes
   grid      :       9037. kBytes
   one-center:         15. kBytes
   wavefun   :       8212. kBytes
 
  
  
 General timing and accounting informations for this job:
 ========================================================
  
                  Total CPU time used (sec):       11.687
                            User time (sec):       11.406
                          System time (sec):        0.281
                         Elapsed time (sec):       11.779
  
                   Maximum memory used (kb):      120920.
                   Average memory used (kb):           0.
  
                          Minor page faults:        32868
                          Major page faults:            0
                 Voluntary context switches:          383
