<?xml version="1.0" encoding="ISO-8859-1"?>
<modeling>
 <generator>
  <i name="program" type="string">vasp </i>
  <i name="version" type="string">5.4.4.18Apr17-6-g9f103f2a35  </i>
  <i name="subversion" type="string">(build Jun 23 2019 17:35:09) complex            parallel </i>
  <i name="platform" type="string">LinuxIFC </i>
  <i name="date" type="string">2020 01 15 </i>
  <i name="time" type="string">15:38:30 </i>
 </generator>
 <incar>
  <i type="int" name="ISTART">     0</i>
  <i type="string" name="PREC">acc</i>
  <i type="string" name="ALGO"> Normal</i>
  <i type="int" name="ISPIN">     1</i>
  <i type="int" name="NELM">   150</i>
  <i type="int" name="NELMIN">     5</i>
  <i type="int" name="IBRION">    -1</i>
  <i name="EDIFF">      0.00000001</i>
  <i type="int" name="NSW">     0</i>
  <i type="int" name="ISIF">     3</i>
  <i name="ENCUT">    520.00000000</i>
  <i type="logical" name="LREAL"> F  </i>
  <i type="logical" name="LPLANE"> T  </i>
  <i type="int" name="ISMEAR">     0</i>
  <i name="SIGMA">      0.05000000</i>
  <i type="logical" name="LWAVE"> F  </i>
  <i type="logical" name="LCHARG"> F  </i>
  <v type="int" name="KPOINT_BSE">    -1     0     0     0</v>
  <i type="int" name="NELM">   150</i>
  <i type="string" name="GGA"> PE</i>
 </incar>
 <structure name="primitive_cell" >
  <crystal>
   <varray name="basis" >
    <v>       0.00000000       4.45935953       4.45935953 </v>
    <v>       4.45935953       0.00000000       4.45935953 </v>
    <v>       4.45935953       4.45935953       0.00000000 </v>
   </varray>
   <i name="volume">    177.35664301 </i>
   <varray name="rec_basis" >
    <v>      -0.11212372       0.11212372       0.11212372 </v>
    <v>       0.11212372      -0.11212372       0.11212372 </v>
    <v>       0.11212372       0.11212372      -0.11212372 </v>
   </varray>
  </crystal>
  <varray name="positions" >
   <v>       0.25000051       0.25000051       0.25000051 </v>
   <v>       0.49999989       0.49999989       0.49999989 </v>
   <v>       0.00000000       0.00000000       0.00000000 </v>
   <v>      -0.24999961      -0.24999961      -0.24999961 </v>
  </varray>
 </structure>
 <varray name="primitive_index" >
  <v type="int" >        1 </v>
  <v type="int" >        4 </v>
  <v type="int" >        3 </v>
  <v type="int" >        2 </v>
 </varray>
 <kpoints>
  <generation param="Gamma">
   <v type="int" name="divisions">       8        8        8 </v>
   <v name="usershift">      0.00000000       0.00000000       0.00000000 </v>
   <v name="genvec1">      0.12500000       0.00000000       0.00000000 </v>
   <v name="genvec2">      0.00000000       0.12500000       0.00000000 </v>
   <v name="genvec3">      0.00000000       0.00000000       0.12500000 </v>
   <v name="shift">      0.00000000       0.00000000       0.00000000 </v>
  </generation>
  <varray name="kpointlist" >
   <v>       0.00000000       0.00000000       0.00000000 </v>
   <v>       0.12500000       0.00000000       0.00000000 </v>
   <v>       0.25000000       0.00000000       0.00000000 </v>
   <v>       0.37500000       0.00000000       0.00000000 </v>
   <v>       0.50000000       0.00000000       0.00000000 </v>
   <v>       0.12500000       0.12500000       0.00000000 </v>
   <v>       0.25000000       0.12500000       0.00000000 </v>
   <v>       0.37500000       0.12500000       0.00000000 </v>
   <v>       0.50000000       0.12500000       0.00000000 </v>
   <v>      -0.37500000       0.12500000       0.00000000 </v>
   <v>      -0.25000000       0.12500000       0.00000000 </v>
   <v>      -0.12500000       0.12500000       0.00000000 </v>
   <v>       0.25000000       0.25000000       0.00000000 </v>
   <v>       0.37500000       0.25000000       0.00000000 </v>
   <v>       0.50000000       0.25000000       0.00000000 </v>
   <v>      -0.37500000       0.25000000       0.00000000 </v>
   <v>      -0.25000000       0.25000000       0.00000000 </v>
   <v>       0.37500000       0.37500000       0.00000000 </v>
   <v>       0.50000000       0.37500000       0.00000000 </v>
   <v>      -0.37500000       0.37500000       0.00000000 </v>
   <v>       0.50000000       0.50000000       0.00000000 </v>
   <v>       0.37500000       0.25000000       0.12500000 </v>
   <v>       0.50000000       0.25000000       0.12500000 </v>
   <v>      -0.37500000       0.25000000       0.12500000 </v>
   <v>       0.50000000       0.37500000       0.12500000 </v>
   <v>      -0.37500000       0.37500000       0.12500000 </v>
   <v>      -0.25000000       0.37500000       0.12500000 </v>
   <v>      -0.37500000       0.50000000       0.12500000 </v>
   <v>      -0.25000000       0.50000000       0.25000000 </v>
  </varray>
  <varray name="weights" >
   <v>       0.00195312 </v>
   <v>       0.01562500 </v>
   <v>       0.01562500 </v>
   <v>       0.01562500 </v>
   <v>       0.00781250 </v>
   <v>       0.01171875 </v>
   <v>       0.04687500 </v>
   <v>       0.04687500 </v>
   <v>       0.04687500 </v>
   <v>       0.04687500 </v>
   <v>       0.04687500 </v>
   <v>       0.02343750 </v>
   <v>       0.01171875 </v>
   <v>       0.04687500 </v>
   <v>       0.04687500 </v>
   <v>       0.04687500 </v>
   <v>       0.02343750 </v>
   <v>       0.01171875 </v>
   <v>       0.04687500 </v>
   <v>       0.02343750 </v>
   <v>       0.00585938 </v>
   <v>       0.04687500 </v>
   <v>       0.09375000 </v>
   <v>       0.04687500 </v>
   <v>       0.04687500 </v>
   <v>       0.09375000 </v>
   <v>       0.04687500 </v>
   <v>       0.02343750 </v>
   <v>       0.01171875 </v>
  </varray>
 </kpoints>
 <parameters>
  <separator name="general" >
   <i type="string" name="SYSTEM">unknown system</i>
   <i type="logical" name="LCOMPAT"> F  </i>
  </separator>
  <separator name="electronic" >
   <i type="string" name="PREC">acc</i>
   <i name="ENMAX">    520.00000000</i>
   <i name="ENAUG">    442.89900000</i>
   <i name="EDIFF">      0.00000001</i>
   <i type="int" name="IALGO">    38</i>
   <i type="int" name="IWAVPR">    10</i>
   <i type="int" name="NBANDS">    25</i>
   <i name="NELECT">     42.00000000</i>
   <i type="int" name="TURBO">     0</i>
   <i type="int" name="IRESTART">     0</i>
   <i type="int" name="NREBOOT">     0</i>
   <i type="int" name="NMIN">     0</i>
   <i name="EREF">      0.00000000</i>
   <separator name="electronic smearing" >
    <i type="int" name="ISMEAR">     0</i>
    <i name="SIGMA">      0.05000000</i>
    <i name="KSPACING">      0.50000000</i>
    <i type="logical" name="KGAMMA"> T  </i>
   </separator>
   <separator name="electronic projectors" >
    <i type="logical" name="LREAL"> F  </i>
    <v name="ROPT">      0.00000000      0.00000000      0.00000000</v>
    <i type="int" name="LMAXPAW">  -100</i>
    <i type="int" name="LMAXMIX">     2</i>
    <i type="logical" name="NLSPLINE"> F  </i>
   </separator>
   <separator name="electronic startup" >
    <i type="int" name="ISTART">     0</i>
    <i type="int" name="ICHARG">     2</i>
    <i type="int" name="INIWAV">     1</i>
   </separator>
   <separator name="electronic spin" >
    <i type="int" name="ISPIN">     1</i>
    <i type="logical" name="LNONCOLLINEAR"> F  </i>
    <v name="MAGMOM">      1.00000000      1.00000000      1.00000000      1.00000000</v>
    <i name="NUPDOWN">     -1.00000000</i>
    <i type="logical" name="LSORBIT"> F  </i>
    <v name="SAXIS">      0.00000000      0.00000000      1.00000000</v>
    <i type="logical" name="LSPIRAL"> F  </i>
    <v name="QSPIRAL">      0.00000000      0.00000000      0.00000000</v>
    <i type="logical" name="LZEROZ"> F  </i>
   </separator>
   <separator name="electronic exchange-correlation" >
    <i type="logical" name="LASPH"> F  </i>
    <i type="logical" name="LMETAGGA"> F  </i>
   </separator>
   <separator name="electronic convergence" >
    <i type="int" name="NELM">   150</i>
    <i type="int" name="NELMDL">    -5</i>
    <i type="int" name="NELMIN">     5</i>
    <i name="ENINI">    520.00000000</i>
    <separator name="electronic convergence detail" >
     <i type="logical" name="LDIAG"> T  </i>
     <i type="logical" name="LSUBROT"> F  </i>
     <i name="WEIMIN">      0.00000000</i>
     <i name="EBREAK">      0.00000000</i>
     <i name="DEPER">      0.30000000</i>
     <i type="int" name="NRMM">     4</i>
     <i name="TIME">      0.40000000</i>
    </separator>
   </separator>
   <separator name="electronic mixer" >
    <i name="AMIX">      0.40000000</i>
    <i name="BMIX">      1.00000000</i>
    <i name="AMIN">      0.10000000</i>
    <i name="AMIX_MAG">      1.60000000</i>
    <i name="BMIX_MAG">      1.00000000</i>
    <separator name="electronic mixer details" >
     <i type="int" name="IMIX">     4</i>
     <i type="logical" name="MIXFIRST"> F  </i>
     <i type="int" name="MAXMIX">   -45</i>
     <i name="WC">    100.00000000</i>
     <i type="int" name="INIMIX">     1</i>
     <i type="int" name="MIXPRE">     1</i>
     <i type="int" name="MREMOVE">     5</i>
    </separator>
   </separator>
   <separator name="electronic dipolcorrection" >
    <i type="logical" name="LDIPOL"> F  </i>
    <i type="logical" name="LMONO"> F  </i>
    <i type="int" name="IDIPOL">     0</i>
    <i name="EPSILON">      1.00000000</i>
    <v name="DIPOL">   -100.00000000   -100.00000000   -100.00000000</v>
    <i name="EFIELD">      0.00000000</i>
   </separator>
  </separator>
  <separator name="grids" >
   <i type="int" name="NGX">    48</i>
   <i type="int" name="NGY">    48</i>
   <i type="int" name="NGZ">    48</i>
   <i type="int" name="NGXF">    96</i>
   <i type="int" name="NGYF">    96</i>
   <i type="int" name="NGZF">    96</i>
   <i type="logical" name="ADDGRID"> F  </i>
  </separator>
  <separator name="ionic" >
   <i type="int" name="NSW">     0</i>
   <i type="int" name="IBRION">    -1</i>
   <i type="int" name="MDALGO">     0</i>
   <i type="int" name="ISIF">     3</i>
   <i name="PSTRESS">      0.00000000</i>
   <i name="EDIFFG">      0.00000010</i>
   <i type="int" name="NFREE">     0</i>
   <i name="POTIM">      0.50000000</i>
   <i name="SMASS">     -3.00000000</i>
   <i name="SCALEE">      1.00000000</i>
  </separator>
  <separator name="ionic md" >
   <i name="TEBEG">      0.00010000</i>
   <i name="TEEND">      0.00010000</i>
   <i type="int" name="NBLOCK">     1</i>
   <i type="int" name="KBLOCK">     1</i>
   <i type="int" name="NPACO">   256</i>
   <i name="APACO">     16.00000000</i>
  </separator>
  <separator name="symmetry" >
   <i type="int" name="ISYM">     2</i>
   <i name="SYMPREC">      0.00001000</i>
  </separator>
  <separator name="dos" >
   <i type="int" name="LORBIT">     0</i>
   <v name="RWIGS">     -1.00000000     -1.00000000     -1.00000000</v>
   <i type="int" name="NEDOS">   301</i>
   <i name="EMIN">     10.00000000</i>
   <i name="EMAX">    -10.00000000</i>
   <i name="EFERMI">      0.00000000</i>
  </separator>
  <separator name="writing" >
   <i type="int" name="NWRITE">     2</i>
   <i type="logical" name="LWAVE"> F  </i>
   <i type="logical" name="LDOWNSAMPLE"> F  </i>
   <i type="logical" name="LCHARG"> F  </i>
   <i type="logical" name="LPARD"> F  </i>
   <i type="logical" name="LVTOT"> F  </i>
   <i type="logical" name="LVHAR"> F  </i>
   <i type="logical" name="LELF"> F  </i>
   <i type="logical" name="LOPTICS"> F  </i>
   <v name="STM">      0.00000000      0.00000000      0.00000000      0.00000000      0.00000000      0.00000000      0.00000000</v>
  </separator>
  <separator name="performance" >
   <i type="int" name="NPAR">     1</i>
   <i type="int" name="NSIM">     4</i>
   <i type="int" name="NBLK">    -1</i>
   <i type="logical" name="LPLANE"> T  </i>
   <i type="logical" name="LSCALAPACK"> T  </i>
   <i type="logical" name="LSCAAWARE"> F  </i>
   <i type="logical" name="LSCALU"> F  </i>
   <i type="logical" name="LASYNC"> F  </i>
   <i type="logical" name="LORBITALREAL"> F  </i>
  </separator>
  <separator name="miscellaneous" >
   <i type="int" name="IDIOT">     3</i>
   <i type="int" name="ISPECIAL">     0</i>
   <i type="logical" name="LMUSIC"> F  </i>
   <v name="POMASS">    208.98000000    132.90000000     39.09800000</v>
   <v name="DARWINR">      0.00000000      0.00000000      0.00000000</v>
   <v name="DARWINV">      1.00000000      1.00000000      1.00000000</v>
   <i type="logical" name="LCORR"> T  </i>
  </separator>
  <i type="logical" name="GGA_COMPAT"> T  </i>
  <i type="logical" name="LBERRY"> F  </i>
  <i type="int" name="ICORELEVEL">     0</i>
  <i type="logical" name="LDAU"> F  </i>
  <i type="int" name="I_CONSTRAINED_M">     0</i>
  <separator name="electronic exchange-correlation" >
   <i type="string" name="GGA">PE</i>
   <i type="int" name="VOSKOWN">     0</i>
   <i type="logical" name="LHFCALC"> F  </i>
   <i type="string" name="PRECFOCK"></i>
   <i type="logical" name="LSYMGRAD"> F  </i>
   <i type="logical" name="LHFONE"> F  </i>
   <i type="logical" name="LRHFCALC"> F  </i>
   <i type="logical" name="LTHOMAS"> F  </i>
   <i type="logical" name="LMODELHF"> F  </i>
   <i name="ENCUT4O">     -1.00000000</i>
   <i type="int" name="EXXOEP">     0</i>
   <i type="int" name="FOURORBIT">     0</i>
   <i name="AEXX">      0.00000000</i>
   <i name="HFALPHA">      0.00000000</i>
   <i name="MCALPHA">      0.00000000</i>
   <i name="ALDAX">      1.00000000</i>
   <i name="AGGAX">      1.00000000</i>
   <i name="ALDAC">      1.00000000</i>
   <i name="AGGAC">      1.00000000</i>
   <i type="int" name="NKREDX">     1</i>
   <i type="int" name="NKREDY">     1</i>
   <i type="int" name="NKREDZ">     1</i>
   <i type="logical" name="SHIFTRED"> F  </i>
   <i type="logical" name="ODDONLY"> F  </i>
   <i type="logical" name="EVENONLY"> F  </i>
   <i type="int" name="LMAXFOCK">     0</i>
   <i type="int" name="NMAXFOCKAE">     0</i>
   <i type="logical" name="LFOCKAEDFT"> F  </i>
   <i name="HFSCREEN">      0.00000000</i>
   <i name="HFSCREENC">      0.00000000</i>
   <i type="int" name="NBANDSGWLOW">     0</i>
  </separator>
  <separator name="vdW DFT" >
   <i type="logical" name="LUSE_VDW"> F  </i>
   <i name="Zab_VDW">     -0.84910000</i>
   <i name="PARAM1">      0.12340000</i>
   <i name="PARAM2">      1.00000000</i>
   <i name="PARAM3">      0.00000000</i>
  </separator>
  <separator name="model GW" >
   <i type="int" name="MODEL_GW">     0</i>
   <i name="MODEL_EPS0">     26.60349645</i>
   <i name="MODEL_ALPHA">      1.00000000</i>
  </separator>
  <separator name="linear response parameters" >
   <i type="logical" name="LEPSILON"> F  </i>
   <i type="logical" name="LRPA"> F  </i>
   <i type="logical" name="LNABLA"> F  </i>
   <i type="logical" name="LVEL"> F  </i>
   <i type="int" name="KINTER">     0</i>
   <i name="CSHIFT">      0.10000000</i>
   <i name="OMEGAMAX">     -1.00000000</i>
   <i name="DEG_THRESHOLD">      0.00200000</i>
   <i name="RTIME">     -0.10000000</i>
   <i name="WPLASMAI">      0.00000000</i>
   <v name="DFIELD">      0.00000000      0.00000000      0.00000000</v>
   <v name="WPLASMA">      0.00000000      0.00000000      0.00000000      0.00000000      0.00000000      0.00000000      0.00000000      0.00000000      0.00000000</v>
  </separator>
  <separator name="orbital magnetization" >
   <i type="logical" name="NUCIND"> F  </i>
   <v name="MAGPOS">      0.00000000      0.00000000      0.00000000</v>
   <i type="logical" name="LNICSALL"> T  </i>
   <i type="logical" name="ORBITALMAG"> F  </i>
   <i type="logical" name="LMAGBLOCH"> F  </i>
   <i type="logical" name="LCHIMAG"> F  </i>
   <i type="logical" name="LGAUGE"> T  </i>
   <i type="int" name="MAGATOM">     0</i>
   <v name="MAGDIPOL">      0.00000000      0.00000000      0.00000000</v>
   <v name="AVECCONST">      0.00000000      0.00000000      0.00000000</v>
  </separator>
  <separator name="response functions" >
   <i type="logical" name="LADDER"> F  </i>
   <i type="logical" name="LRPAFORCE"> F  </i>
   <i type="logical" name="LFXC"> F  </i>
   <i type="logical" name="LHARTREE"> T  </i>
   <i type="int" name="IBSE">     0</i>
   <v type="int" name="KPOINT">    -1     0     0     0</v>
   <i type="logical" name="LTCTE"> F  </i>
   <i type="logical" name="LTETE"> F  </i>
   <i type="logical" name="LTRIPLET"> F  </i>
   <i type="logical" name="LFXCEPS"> F  </i>
   <i type="logical" name="LFXHEG"> F  </i>
   <i type="int" name="NATURALO">     2</i>
   <i type="logical" name="L2ORDER"> F  </i>
   <i type="logical" name="LMP2LT"> F  </i>
   <i type="logical" name="LUSEW"> F  </i>
   <i name="ENCUTGW">     -2.00000000</i>
   <i name="ENCUTGWSOFT">     -2.00000000</i>
   <i name="ENCUTLF">     -1.00000000</i>
   <i type="int" name="LMAXMP2">    -1</i>
   <i name="SCISSOR">      0.00000000</i>
   <i type="int" name="NOMEGA">     0</i>
   <i type="int" name="NOMEGAR">     0</i>
   <i type="int" name="NBANDSGW">    -1</i>
   <i type="int" name="NBANDSO">    -1</i>
   <i type="int" name="NBANDSV">    -1</i>
   <i type="int" name="NELM">   150</i>
   <i type="int" name="NELMHF">     1</i>
   <i type="int" name="DIM">     3</i>
   <i type="int" name="ANTIRES">     0</i>
   <i name="OMEGAMAX">    -30.00000000</i>
   <i name="OMEGAMIN">    -30.00000000</i>
   <i name="OMEGATL">   -200.00000000</i>
   <i type="int" name="OMEGAGRID">   140</i>
   <i name="CSHIFT">     -0.10000000</i>
   <i type="logical" name="SELFENERGY"> F  </i>
   <i type="logical" name="LSPECTRAL"> F  </i>
   <i type="logical" name="LSPECTRALGW"> F  </i>
   <i type="logical" name="LSINGLES"> F  </i>
   <i type="logical" name="LFERMIGW"> F  </i>
   <i type="logical" name="ODDONLYGW"> F  </i>
   <i type="logical" name="EVENONLYGW"> F  </i>
   <i type="int" name="NKREDLFX">     1</i>
   <i type="int" name="NKREDLFY">     1</i>
   <i type="int" name="NKREDLFZ">     1</i>
   <i type="int" name="MAXMEM">  2800</i>
   <i type="int" name="TELESCOPE">     0</i>
   <i type="int" name="TAUPAR">     1</i>
   <i type="int" name="OMEGAPAR">    -1</i>
   <i name="LAMBDA">      1.00000000</i>
  </separator>
  <separator name="External order field" >
   <i name="OFIELD_KAPPA">      0.00000000</i>
   <v name="OFIELD_K">      0.00000000      0.00000000      0.00000000</v>
   <i name="OFIELD_Q6_NEAR">      0.00000000</i>
   <i name="OFIELD_Q6_FAR">      0.00000000</i>
   <i name="OFIELD_A">      0.00000000</i>
  </separator>
 </parameters>
 <atominfo>
  <atoms>       4 </atoms>
  <types>       3 </types>
  <array name="atoms" >
   <dimension dim="1">ion</dimension>
   <field type="string">element</field>
   <field type="int">atomtype</field>
   <set>
    <rc><c>Bi</c><c>   1</c></rc>
    <rc><c>Cs</c><c>   2</c></rc>
    <rc><c>K </c><c>   3</c></rc>
    <rc><c>K </c><c>   3</c></rc>
   </set>
  </array>
  <array name="atomtypes" >
   <dimension dim="1">type</dimension>
   <field type="int">atomspertype</field>
   <field type="string">element</field>
   <field>mass</field>
   <field>valence</field>
   <field type="string">pseudopotential</field>
   <set>
    <rc><c>   1</c><c>Bi</c><c>    208.98000000</c><c>     15.00000000</c><c>  PAW_PBE Bi_d 06Sep2000                </c></rc>
    <rc><c>   1</c><c>Cs</c><c>    132.90000000</c><c>      9.00000000</c><c>  PAW_PBE Cs_sv 08Apr2002               </c></rc>
    <rc><c>   2</c><c>K </c><c>     39.09800000</c><c>      9.00000000</c><c>  PAW_PBE K_sv 06Sep2000                </c></rc>
   </set>
  </array>
 </atominfo>
 <structure name="initialpos" >
  <crystal>
   <varray name="basis" >
    <v>       0.00000000       4.45935953       4.45935953 </v>
    <v>       4.45935953       0.00000000       4.45935953 </v>
    <v>       4.45935953       4.45935953       0.00000000 </v>
   </varray>
   <i name="volume">    177.35664301 </i>
   <varray name="rec_basis" >
    <v>      -0.11212372       0.11212372       0.11212372 </v>
    <v>       0.11212372      -0.11212372       0.11212372 </v>
    <v>       0.11212372       0.11212372      -0.11212372 </v>
   </varray>
  </crystal>
  <varray name="positions" >
   <v>       0.25000051       0.25000051       0.25000051 </v>
   <v>       0.75000039       0.75000039       0.75000039 </v>
   <v>       0.00000000       0.00000000       0.00000000 </v>
   <v>       0.49999989       0.49999989       0.49999989 </v>
  </varray>
 </structure>
 <calculation>
  <scstep>
   <time name="dav">    0.48    0.48</time>
   <time name="total">    0.57    0.57</time>
   <energy>
    <i name="alphaZ">    139.65821781 </i>
    <i name="ewald">  -2671.57065026 </i>
    <i name="hartreedc">  -1157.65171895 </i>
    <i name="XCdc">    129.92733453 </i>
    <i name="pawpsdc">   3288.09641306 </i>
    <i name="pawaedc">  -3241.43768472 </i>
    <i name="eentropy">     -0.00201470 </i>
    <i name="bandstr">   -166.33575490 </i>
    <i name="atom">   4064.89301065 </i>
    <i name="e_fr_energy">    385.57715252 </i>
    <i name="e_wo_entrp">    385.57916721 </i>
    <i name="e_0_energy">    385.57815986 </i>
   </energy>
  </scstep>
  <scstep>
   <time name="dav">    0.50    0.51</time>
   <time name="total">    0.51    0.51</time>
   <energy>
    <i name="e_fr_energy">     24.32027082 </i>
    <i name="e_wo_entrp">     24.32027133 </i>
    <i name="e_0_energy">     24.32027107 </i>
   </energy>
  </scstep>
  <scstep>
   <time name="dav">    0.62    0.62</time>
   <time name="total">    0.62    0.62</time>
   <energy>
    <i name="e_fr_energy">     -7.88066854 </i>
    <i name="e_wo_entrp">     -7.88066854 </i>
    <i name="e_0_energy">     -7.88066854 </i>
   </energy>
  </scstep>
  <scstep>
   <time name="dav">    0.66    0.66</time>
   <time name="total">    0.66    0.66</time>
   <energy>
    <i name="e_fr_energy">     -9.14363601 </i>
    <i name="e_wo_entrp">     -9.14363601 </i>
    <i name="e_0_energy">     -9.14363601 </i>
   </energy>
  </scstep>
  <scstep>
   <time name="dav">    0.66    0.66</time>
   <time name="total">    0.72    0.72</time>
   <energy>
    <i name="e_fr_energy">     -9.17706794 </i>
    <i name="e_wo_entrp">     -9.17706794 </i>
    <i name="e_0_energy">     -9.17706794 </i>
   </energy>
  </scstep>
  <scstep>
   <time name="dav">    0.52    0.52</time>
   <time name="total">    0.68    0.68</time>
   <energy>
    <i name="e_fr_energy">     -8.43286190 </i>
    <i name="e_wo_entrp">     -8.43286190 </i>
    <i name="e_0_energy">     -8.43286190 </i>
   </energy>
  </scstep>
  <scstep>
   <time name="dav">    0.60    0.60</time>
   <time name="total">    0.75    0.76</time>
   <energy>
    <i name="e_fr_energy">     -8.30564277 </i>
    <i name="e_wo_entrp">     -8.30564272 </i>
    <i name="e_0_energy">     -8.30564275 </i>
   </energy>
  </scstep>
  <scstep>
   <time name="dav">    0.54    0.54</time>
   <time name="total">    0.69    0.69</time>
   <energy>
    <i name="e_fr_energy">     -8.31638336 </i>
    <i name="e_wo_entrp">     -8.31638336 </i>
    <i name="e_0_energy">     -8.31638336 </i>
   </energy>
  </scstep>
  <scstep>
   <time name="dav">    0.60    0.60</time>
   <time name="total">    0.75    0.75</time>
   <energy>
    <i name="e_fr_energy">     -8.31582909 </i>
    <i name="e_wo_entrp">     -8.31582905 </i>
    <i name="e_0_energy">     -8.31582907 </i>
   </energy>
  </scstep>
  <scstep>
   <time name="dav">    0.54    0.54</time>
   <time name="total">    0.69    0.69</time>
   <energy>
    <i name="e_fr_energy">     -8.31611645 </i>
    <i name="e_wo_entrp">     -8.31611643 </i>
    <i name="e_0_energy">     -8.31611644 </i>
   </energy>
  </scstep>
  <scstep>
   <time name="dav">    0.55    0.55</time>
   <time name="total">    0.70    0.70</time>
   <energy>
    <i name="e_fr_energy">     -8.31613478 </i>
    <i name="e_wo_entrp">     -8.31613476 </i>
    <i name="e_0_energy">     -8.31613477 </i>
   </energy>
  </scstep>
  <scstep>
   <time name="dav">    0.59    0.59</time>
   <time name="total">    0.73    0.74</time>
   <energy>
    <i name="e_fr_energy">     -8.31613289 </i>
    <i name="e_wo_entrp">     -8.31613287 </i>
    <i name="e_0_energy">     -8.31613288 </i>
   </energy>
  </scstep>
  <scstep>
   <time name="dav">    0.69    0.69</time>
   <time name="total">    0.84    0.84</time>
   <energy>
    <i name="e_fr_energy">     -8.31613385 </i>
    <i name="e_wo_entrp">     -8.31613383 </i>
    <i name="e_0_energy">     -8.31613384 </i>
   </energy>
  </scstep>
  <scstep>
   <time name="dav">    0.57    0.58</time>
   <time name="total">    0.73    0.73</time>
   <energy>
    <i name="e_fr_energy">     -8.31613365 </i>
    <i name="e_wo_entrp">     -8.31613363 </i>
    <i name="e_0_energy">     -8.31613364 </i>
   </energy>
  </scstep>
  <scstep>
   <time name="dav">    0.52    0.52</time>
   <time name="total">    0.61    0.61</time>
   <energy>
    <i name="alphaZ">    139.65821781 </i>
    <i name="ewald">  -2671.57065026 </i>
    <i name="hartreedc">  -1157.57732129 </i>
    <i name="XCdc">    129.76668752 </i>
    <i name="pawpsdc">   3385.08803472 </i>
    <i name="pawaedc">  -3341.42911233 </i>
    <i name="eentropy">     -0.00000002 </i>
    <i name="bandstr">   -557.14500044 </i>
    <i name="atom">   4064.89301065 </i>
    <i name="e_fr_energy">     -8.31613365 </i>
    <i name="e_wo_entrp">     -8.31613363 </i>
    <i name="e_0_energy">     -8.31613364 </i>
   </energy>
  </scstep>
  <structure>
   <crystal>
    <varray name="basis" >
     <v>       0.00000000       4.45935953       4.45935953 </v>
     <v>       4.45935953       0.00000000       4.45935953 </v>
     <v>       4.45935953       4.45935953       0.00000000 </v>
    </varray>
    <i name="volume">    177.35664301 </i>
    <varray name="rec_basis" >
     <v>      -0.11212372       0.11212372       0.11212372 </v>
     <v>       0.11212372      -0.11212372       0.11212372 </v>
     <v>       0.11212372       0.11212372      -0.11212372 </v>
    </varray>
   </crystal>
   <varray name="positions" >
    <v>       0.25000051       0.25000051       0.25000051 </v>
    <v>       0.75000039       0.75000039       0.75000039 </v>
    <v>       0.00000000       0.00000000       0.00000000 </v>
    <v>       0.49999989       0.49999989       0.49999989 </v>
   </varray>
  </structure>
  <varray name="forces" >
   <v>       0.00000000      -0.00000000      -0.00000000 </v>
   <v>       0.00000000       0.00000000       0.00000000 </v>
   <v>       0.00000000       0.00000000       0.00000000 </v>
   <v>      -0.00000000      -0.00000000      -0.00000000 </v>
  </varray>
  <varray name="stress" >
   <v>       0.16804758      -0.00000000      -0.00000000 </v>
   <v>       0.00000000       0.16804758       0.00000000 </v>
   <v>       0.00000000       0.00000000       0.16804758 </v>
  </varray>
  <energy>
   <i name="e_fr_energy">     -8.31613365 </i>
   <i name="e_wo_entrp">     -8.31613364 </i>
   <i name="e_0_energy">     -0.00000002 </i>
  </energy>
  <time name="totalsc">   10.88   10.90</time>
  <eigenvalues>
   <array>
    <dimension dim="1">band</dimension>
    <dimension dim="2">kpoint</dimension>
    <dimension dim="3">spin</dimension>
    <field>eigene</field>
    <field>occ</field>
    <set>
     <set comment="spin 1">
      <set comment="kpoint 1">
       <r>  -29.2395    1.0000 </r>
       <r>  -29.2308    1.0000 </r>
       <r>  -21.1320    1.0000 </r>
       <r>  -19.0806    1.0000 </r>
       <r>  -19.0806    1.0000 </r>
       <r>  -19.0806    1.0000 </r>
       <r>  -19.0763    1.0000 </r>
       <r>  -19.0763    1.0000 </r>
       <r>  -12.7703    1.0000 </r>
       <r>  -12.7703    1.0000 </r>
       <r>  -12.7703    1.0000 </r>
       <r>  -12.7238    1.0000 </r>
       <r>  -12.7238    1.0000 </r>
       <r>  -12.7238    1.0000 </r>
       <r>   -7.9816    1.0000 </r>
       <r>   -7.9816    1.0000 </r>
       <r>   -7.9816    1.0000 </r>
       <r>   -7.0831    1.0000 </r>
       <r>    1.8133    1.0000 </r>
       <r>    1.8133    1.0000 </r>
       <r>    1.8133    1.0000 </r>
       <r>    2.1172    0.0000 </r>
       <r>    3.9693    0.0000 </r>
       <r>    3.9693    0.0000 </r>
       <r>    4.3649    0.0000 </r>
      </set>
      <set comment="kpoint 2">
       <r>  -29.2392    1.0000 </r>
       <r>  -29.2311    1.0000 </r>
       <r>  -21.1321    1.0000 </r>
       <r>  -19.0806    1.0000 </r>
       <r>  -19.0806    1.0000 </r>
       <r>  -19.0806    1.0000 </r>
       <r>  -19.0764    1.0000 </r>
       <r>  -19.0764    1.0000 </r>
       <r>  -12.7703    1.0000 </r>
       <r>  -12.7689    1.0000 </r>
       <r>  -12.7689    1.0000 </r>
       <r>  -12.7259    1.0000 </r>
       <r>  -12.7259    1.0000 </r>
       <r>  -12.7249    1.0000 </r>
       <r>   -7.9989    1.0000 </r>
       <r>   -7.9806    1.0000 </r>
       <r>   -7.9806    1.0000 </r>
       <r>   -7.0547    1.0000 </r>
       <r>    1.3314    1.0000 </r>
       <r>    1.7444    1.0000 </r>
       <r>    1.7444    1.0000 </r>
       <r>    2.7409    0.0000 </r>
       <r>    4.1597    0.0000 </r>
       <r>    4.1597    0.0000 </r>
       <r>    4.3035    0.0000 </r>
      </set>
      <set comment="kpoint 3">
       <r>  -29.2382    1.0000 </r>
       <r>  -29.2321    1.0000 </r>
       <r>  -21.1324    1.0000 </r>
       <r>  -19.0805    1.0000 </r>
       <r>  -19.0805    1.0000 </r>
       <r>  -19.0804    1.0000 </r>
       <r>  -19.0764    1.0000 </r>
       <r>  -19.0764    1.0000 </r>
       <r>  -12.7685    1.0000 </r>
       <r>  -12.7646    1.0000 </r>
       <r>  -12.7646    1.0000 </r>
       <r>  -12.7315    1.0000 </r>
       <r>  -12.7315    1.0000 </r>
       <r>  -12.7293    1.0000 </r>
       <r>   -8.0331    1.0000 </r>
       <r>   -7.9782    1.0000 </r>
       <r>   -7.9782    1.0000 </r>
       <r>   -6.9950    1.0000 </r>
       <r>    0.9066    1.0000 </r>
       <r>    1.6068    1.0000 </r>
       <r>    1.6068    1.0000 </r>
       <r>    3.4328    0.0000 </r>
       <r>    4.4087    0.0000 </r>
       <r>    4.5592    0.0000 </r>
       <r>    4.6113    0.0000 </r>
      </set>
      <set comment="kpoint 4">
       <r>  -29.2367    1.0000 </r>
       <r>  -29.2334    1.0000 </r>
       <r>  -21.1326    1.0000 </r>
       <r>  -19.0805    1.0000 </r>
       <r>  -19.0805    1.0000 </r>
       <r>  -19.0802    1.0000 </r>
       <r>  -19.0764    1.0000 </r>
       <r>  -19.0764    1.0000 </r>
       <r>  -12.7630    1.0000 </r>
       <r>  -12.7579    1.0000 </r>
       <r>  -12.7579    1.0000 </r>
       <r>  -12.7396    1.0000 </r>
       <r>  -12.7396    1.0000 </r>
       <r>  -12.7374    1.0000 </r>
       <r>   -8.0590    1.0000 </r>
       <r>   -7.9759    1.0000 </r>
       <r>   -7.9759    1.0000 </r>
       <r>   -6.9453    1.0000 </r>
       <r>    0.6521    1.0000 </r>
       <r>    1.4957    1.0000 </r>
       <r>    1.4957    1.0000 </r>
       <r>    3.8260    0.0000 </r>
       <r>    4.7679    0.0000 </r>
       <r>    4.7679    0.0000 </r>
       <r>    4.9613    0.0000 </r>
      </set>
      <set comment="kpoint 5">
       <r>  -29.2351    1.0000 </r>
       <r>  -29.2351    1.0000 </r>
       <r>  -21.1327    1.0000 </r>
       <r>  -19.0805    1.0000 </r>
       <r>  -19.0805    1.0000 </r>
       <r>  -19.0802    1.0000 </r>
       <r>  -19.0764    1.0000 </r>
       <r>  -19.0764    1.0000 </r>
       <r>  -12.7576    1.0000 </r>
       <r>  -12.7509    1.0000 </r>
       <r>  -12.7509    1.0000 </r>
       <r>  -12.7471    1.0000 </r>
       <r>  -12.7471    1.0000 </r>
       <r>  -12.7440    1.0000 </r>
       <r>   -8.0677    1.0000 </r>
       <r>   -7.9749    1.0000 </r>
       <r>   -7.9749    1.0000 </r>
       <r>   -6.9272    1.0000 </r>
       <r>    0.5660    1.0000 </r>
       <r>    1.4552    1.0000 </r>
       <r>    1.4552    1.0000 </r>
       <r>    4.0534    0.0000 </r>
       <r>    4.8895    0.0000 </r>
       <r>    4.8895    0.0000 </r>
       <r>    4.9691    0.0000 </r>
      </set>
      <set comment="kpoint 6">
       <r>  -29.2391    1.0000 </r>
       <r>  -29.2312    1.0000 </r>
       <r>  -21.1322    1.0000 </r>
       <r>  -19.0806    1.0000 </r>
       <r>  -19.0806    1.0000 </r>
       <r>  -19.0806    1.0000 </r>
       <r>  -19.0764    1.0000 </r>
       <r>  -19.0764    1.0000 </r>
       <r>  -12.7732    1.0000 </r>
       <r>  -12.7732    1.0000 </r>
       <r>  -12.7612    1.0000 </r>
       <r>  -12.7335    1.0000 </r>
       <r>  -12.7222    1.0000 </r>
       <r>  -12.7222    1.0000 </r>
       <r>   -8.0025    1.0000 </r>
       <r>   -7.9805    1.0000 </r>
       <r>   -7.9805    1.0000 </r>
       <r>   -7.0483    1.0000 </r>
       <r>    1.2138    1.0000 </r>
       <r>    1.7917    1.0000 </r>
       <r>    1.7917    1.0000 </r>
       <r>    2.7601    0.0000 </r>
       <r>    4.0728    0.0000 </r>
       <r>    4.1164    0.0000 </r>
       <r>    4.3870    0.0000 </r>
      </set>
      <set comment="kpoint 7">
       <r>  -29.2383    1.0000 </r>
       <r>  -29.2319    1.0000 </r>
       <r>  -21.1324    1.0000 </r>
       <r>  -19.0805    1.0000 </r>
       <r>  -19.0805    1.0000 </r>
       <r>  -19.0804    1.0000 </r>
       <r>  -19.0764    1.0000 </r>
       <r>  -19.0764    1.0000 </r>
       <r>  -12.7746    1.0000 </r>
       <r>  -12.7740    1.0000 </r>
       <r>  -12.7520    1.0000 </r>
       <r>  -12.7436    1.0000 </r>
       <r>  -12.7228    1.0000 </r>
       <r>  -12.7226    1.0000 </r>
       <r>   -8.0256    1.0000 </r>
       <r>   -7.9794    1.0000 </r>
       <r>   -7.9787    1.0000 </r>
       <r>   -7.0067    1.0000 </r>
       <r>    0.9339    1.0000 </r>
       <r>    1.6553    1.0000 </r>
       <r>    1.7153    1.0000 </r>
       <r>    3.2855    0.0000 </r>
       <r>    3.9953    0.0000 </r>
       <r>    4.3465    0.0000 </r>
       <r>    4.6826    0.0000 </r>
      </set>
      <set comment="kpoint 8">
       <r>  -29.2371    1.0000 </r>
       <r>  -29.2331    1.0000 </r>
       <r>  -21.1326    1.0000 </r>
       <r>  -19.0805    1.0000 </r>
       <r>  -19.0805    1.0000 </r>
       <r>  -19.0803    1.0000 </r>
       <r>  -19.0764    1.0000 </r>
       <r>  -19.0764    1.0000 </r>
       <r>  -12.7725    1.0000 </r>
       <r>  -12.7709    1.0000 </r>
       <r>  -12.7545    1.0000 </r>
       <r>  -12.7420    1.0000 </r>
       <r>  -12.7277    1.0000 </r>
       <r>  -12.7272    1.0000 </r>
       <r>   -8.0470    1.0000 </r>
       <r>   -7.9789    1.0000 </r>
       <r>   -7.9764    1.0000 </r>
       <r>   -6.9626    1.0000 </r>
       <r>    0.7446    1.0000 </r>
       <r>    1.4776    1.0000 </r>
       <r>    1.5890    1.0000 </r>
       <r>    3.7161    0.0000 </r>
       <r>    4.3374    0.0000 </r>
       <r>    4.8065    0.0000 </r>
       <r>    4.9269    0.0000 </r>
      </set>
      <set comment="kpoint 9">
       <r>  -29.2356    1.0000 </r>
       <r>  -29.2345    1.0000 </r>
       <r>  -21.1328    1.0000 </r>
       <r>  -19.0805    1.0000 </r>
       <r>  -19.0805    1.0000 </r>
       <r>  -19.0802    1.0000 </r>
       <r>  -19.0764    1.0000 </r>
       <r>  -19.0764    1.0000 </r>
       <r>  -12.7708    1.0000 </r>
       <r>  -12.7640    1.0000 </r>
       <r>  -12.7593    1.0000 </r>
       <r>  -12.7370    1.0000 </r>
       <r>  -12.7346    1.0000 </r>
       <r>  -12.7323    1.0000 </r>
       <r>   -8.0567    1.0000 </r>
       <r>   -7.9794    1.0000 </r>
       <r>   -7.9748    1.0000 </r>
       <r>   -6.9389    1.0000 </r>
       <r>    0.6566    1.0000 </r>
       <r>    1.3993    1.0000 </r>
       <r>    1.4915    1.0000 </r>
       <r>    4.0259    0.0000 </r>
       <r>    4.7062    0.0000 </r>
       <r>    4.8981    0.0000 </r>
       <r>    4.9021    0.0000 </r>
      </set>
      <set comment="kpoint 10">
       <r>  -29.2361    1.0000 </r>
       <r>  -29.2341    1.0000 </r>
       <r>  -21.1328    1.0000 </r>
       <r>  -19.0805    1.0000 </r>
       <r>  -19.0804    1.0000 </r>
       <r>  -19.0802    1.0000 </r>
       <r>  -19.0764    1.0000 </r>
       <r>  -19.0764    1.0000 </r>
       <r>  -12.7757    1.0000 </r>
       <r>  -12.7544    1.0000 </r>
       <r>  -12.7531    1.0000 </r>
       <r>  -12.7461    1.0000 </r>
       <r>  -12.7437    1.0000 </r>
       <r>  -12.7244    1.0000 </r>
       <r>   -8.0549    1.0000 </r>
       <r>   -7.9801    1.0000 </r>
       <r>   -7.9749    1.0000 </r>
       <r>   -6.9424    1.0000 </r>
       <r>    0.6735    1.0000 </r>
       <r>    1.4449    1.0000 </r>
       <r>    1.4599    1.0000 </r>
       <r>    4.0059    0.0000 </r>
       <r>    4.6903    0.0000 </r>
       <r>    4.7354    0.0000 </r>
       <r>    4.9221    0.0000 </r>
      </set>
      <set comment="kpoint 11">
       <r>  -29.2375    1.0000 </r>
       <r>  -29.2327    1.0000 </r>
       <r>  -21.1325    1.0000 </r>
       <r>  -19.0805    1.0000 </r>
       <r>  -19.0805    1.0000 </r>
       <r>  -19.0803    1.0000 </r>
       <r>  -19.0764    1.0000 </r>
       <r>  -19.0764    1.0000 </r>
       <r>  -12.7780    1.0000 </r>
       <r>  -12.7589    1.0000 </r>
       <r>  -12.7533    1.0000 </r>
       <r>  -12.7433    1.0000 </r>
       <r>  -12.7394    1.0000 </r>
       <r>  -12.7201    1.0000 </r>
       <r>   -8.0415    1.0000 </r>
       <r>   -7.9806    1.0000 </r>
       <r>   -7.9766    1.0000 </r>
       <r>   -6.9726    1.0000 </r>
       <r>    0.8008    1.0000 </r>
       <r>    1.5053    1.0000 </r>
       <r>    1.5905    1.0000 </r>
       <r>    3.6730    0.0000 </r>
       <r>    4.3489    0.0000 </r>
       <r>    4.5385    0.0000 </r>
       <r>    4.7261    0.0000 </r>
      </set>
      <set comment="kpoint 12">
       <r>  -29.2386    1.0000 </r>
       <r>  -29.2316    1.0000 </r>
       <r>  -21.1323    1.0000 </r>
       <r>  -19.0806    1.0000 </r>
       <r>  -19.0805    1.0000 </r>
       <r>  -19.0805    1.0000 </r>
       <r>  -19.0764    1.0000 </r>
       <r>  -19.0764    1.0000 </r>
       <r>  -12.7755    1.0000 </r>
       <r>  -12.7654    1.0000 </r>
       <r>  -12.7620    1.0000 </r>
       <r>  -12.7333    1.0000 </r>
       <r>  -12.7309    1.0000 </r>
       <r>  -12.7207    1.0000 </r>
       <r>   -8.0183    1.0000 </r>
       <r>   -7.9806    1.0000 </r>
       <r>   -7.9790    1.0000 </r>
       <r>   -7.0196    1.0000 </r>
       <r>    1.0446    1.0000 </r>
       <r>    1.6170    1.0000 </r>
       <r>    1.7409    1.0000 </r>
       <r>    3.1668    0.0000 </r>
       <r>    4.1899    0.0000 </r>
       <r>    4.3362    0.0000 </r>
       <r>    4.4248    0.0000 </r>
      </set>
      <set comment="kpoint 13">
       <r>  -29.2380    1.0000 </r>
       <r>  -29.2322    1.0000 </r>
       <r>  -21.1325    1.0000 </r>
       <r>  -19.0805    1.0000 </r>
       <r>  -19.0805    1.0000 </r>
       <r>  -19.0804    1.0000 </r>
       <r>  -19.0764    1.0000 </r>
       <r>  -19.0764    1.0000 </r>
       <r>  -12.7799    1.0000 </r>
       <r>  -12.7799    1.0000 </r>
       <r>  -12.7567    1.0000 </r>
       <r>  -12.7388    1.0000 </r>
       <r>  -12.7183    1.0000 </r>
       <r>  -12.7183    1.0000 </r>
       <r>   -8.0301    1.0000 </r>
       <r>   -7.9778    1.0000 </r>
       <r>   -7.9778    1.0000 </r>
       <r>   -6.9990    1.0000 </r>
       <r>    0.8371    1.0000 </r>
       <r>    1.7488    1.0000 </r>
       <r>    1.7488    1.0000 </r>
       <r>    3.3539    0.0000 </r>
       <r>    3.6313    0.0000 </r>
       <r>    4.3811    0.0000 </r>
       <r>    4.8695    0.0000 </r>
      </set>
      <set comment="kpoint 14">
       <r>  -29.2372    1.0000 </r>
       <r>  -29.2330    1.0000 </r>
       <r>  -21.1328    1.0000 </r>
       <r>  -19.0804    1.0000 </r>
       <r>  -19.0804    1.0000 </r>
       <r>  -19.0803    1.0000 </r>
       <r>  -19.0763    1.0000 </r>
       <r>  -19.0763    1.0000 </r>
       <r>  -12.7820    1.0000 </r>
       <r>  -12.7811    1.0000 </r>
       <r>  -12.7680    1.0000 </r>
       <r>  -12.7274    1.0000 </r>
       <r>  -12.7190    1.0000 </r>
       <r>  -12.7185    1.0000 </r>
       <r>   -8.0354    1.0000 </r>
       <r>   -7.9792    1.0000 </r>
       <r>   -7.9761    1.0000 </r>
       <r>   -6.9820    1.0000 </r>
       <r>    0.8035    1.0000 </r>
       <r>    1.5964    1.0000 </r>
       <r>    1.6845    1.0000 </r>
       <r>    3.5318    0.0000 </r>
       <r>    3.8122    0.0000 </r>
       <r>    4.7149    0.0000 </r>
       <r>    5.0501    0.0000 </r>
      </set>
      <set comment="kpoint 15">
       <r>  -29.2361    1.0000 </r>
       <r>  -29.2340    1.0000 </r>
       <r>  -21.1329    1.0000 </r>
       <r>  -19.0804    1.0000 </r>
       <r>  -19.0804    1.0000 </r>
       <r>  -19.0802    1.0000 </r>
       <r>  -19.0763    1.0000 </r>
       <r>  -19.0763    1.0000 </r>
       <r>  -12.7849    1.0000 </r>
       <r>  -12.7771    1.0000 </r>
       <r>  -12.7699    1.0000 </r>
       <r>  -12.7257    1.0000 </r>
       <r>  -12.7230    1.0000 </r>
       <r>  -12.7185    1.0000 </r>
       <r>   -8.0337    1.0000 </r>
       <r>   -7.9867    1.0000 </r>
       <r>   -7.9745    1.0000 </r>
       <r>   -6.9666    1.0000 </r>
       <r>    0.8508    1.0000 </r>
       <r>    1.3549    1.0000 </r>
       <r>    1.5798    1.0000 </r>
       <r>    3.7297    0.0000 </r>
       <r>    4.4294    0.0000 </r>
       <r>    4.7184    0.0000 </r>
       <r>    4.9654    0.0000 </r>
      </set>
      <set comment="kpoint 16">
       <r>  -29.2353    1.0000 </r>
       <r>  -29.2348    1.0000 </r>
       <r>  -21.1329    1.0000 </r>
       <r>  -19.0804    1.0000 </r>
       <r>  -19.0803    1.0000 </r>
       <r>  -19.0802    1.0000 </r>
       <r>  -19.0764    1.0000 </r>
       <r>  -19.0763    1.0000 </r>
       <r>  -12.7881    1.0000 </r>
       <r>  -12.7683    1.0000 </r>
       <r>  -12.7618    1.0000 </r>
       <r>  -12.7366    1.0000 </r>
       <r>  -12.7311    1.0000 </r>
       <r>  -12.7136    1.0000 </r>
       <r>   -8.0323    1.0000 </r>
       <r>   -7.9929    1.0000 </r>
       <r>   -7.9740    1.0000 </r>
       <r>   -6.9571    1.0000 </r>
       <r>    0.8656    1.0000 </r>
       <r>    1.2723    1.0000 </r>
       <r>    1.4947    1.0000 </r>
       <r>    4.1326    0.0000 </r>
       <r>    4.3322    0.0000 </r>
       <r>    4.8176    0.0000 </r>
       <r>    5.0305    0.0000 </r>
      </set>
      <set comment="kpoint 17">
       <r>  -29.2365    1.0000 </r>
       <r>  -29.2336    1.0000 </r>
       <r>  -21.1328    1.0000 </r>
       <r>  -19.0805    1.0000 </r>
       <r>  -19.0804    1.0000 </r>
       <r>  -19.0803    1.0000 </r>
       <r>  -19.0764    1.0000 </r>
       <r>  -19.0763    1.0000 </r>
       <r>  -12.7858    1.0000 </r>
       <r>  -12.7563    1.0000 </r>
       <r>  -12.7506    1.0000 </r>
       <r>  -12.7486    1.0000 </r>
       <r>  -12.7417    1.0000 </r>
       <r>  -12.7140    1.0000 </r>
       <r>   -8.0392    1.0000 </r>
       <r>   -7.9880    1.0000 </r>
       <r>   -7.9749    1.0000 </r>
       <r>   -6.9577    1.0000 </r>
       <r>    0.7979    1.0000 </r>
       <r>    1.4228    1.0000 </r>
       <r>    1.4646    1.0000 </r>
       <r>    4.0550    0.0000 </r>
       <r>    4.4634    0.0000 </r>
       <r>    4.5773    0.0000 </r>
       <r>    4.6296    0.0000 </r>
      </set>
      <set comment="kpoint 18">
       <r>  -29.2369    1.0000 </r>
       <r>  -29.2332    1.0000 </r>
       <r>  -21.1329    1.0000 </r>
       <r>  -19.0804    1.0000 </r>
       <r>  -19.0804    1.0000 </r>
       <r>  -19.0803    1.0000 </r>
       <r>  -19.0763    1.0000 </r>
       <r>  -19.0763    1.0000 </r>
       <r>  -12.7866    1.0000 </r>
       <r>  -12.7866    1.0000 </r>
       <r>  -12.7797    1.0000 </r>
       <r>  -12.7163    1.0000 </r>
       <r>  -12.7144    1.0000 </r>
       <r>  -12.7144    1.0000 </r>
       <r>   -8.0310    1.0000 </r>
       <r>   -7.9752    1.0000 </r>
       <r>   -7.9752    1.0000 </r>
       <r>   -6.9941    1.0000 </r>
       <r>    0.8452    1.0000 </r>
       <r>    1.7164    1.0000 </r>
       <r>    1.7164    1.0000 </r>
       <r>    3.2407    0.0000 </r>
       <r>    3.7213    0.0000 </r>
       <r>    4.8782    0.0000 </r>
       <r>    4.8863    0.0000 </r>
      </set>
      <set comment="kpoint 19">
       <r>  -29.2364    1.0000 </r>
       <r>  -29.2337    1.0000 </r>
       <r>  -21.1331    1.0000 </r>
       <r>  -19.0804    1.0000 </r>
       <r>  -19.0803    1.0000 </r>
       <r>  -19.0802    1.0000 </r>
       <r>  -19.0763    1.0000 </r>
       <r>  -19.0763    1.0000 </r>
       <r>  -12.7914    1.0000 </r>
       <r>  -12.7861    1.0000 </r>
       <r>  -12.7809    1.0000 </r>
       <r>  -12.7164    1.0000 </r>
       <r>  -12.7155    1.0000 </r>
       <r>  -12.7098    1.0000 </r>
       <r>   -8.0234    1.0000 </r>
       <r>   -7.9812    1.0000 </r>
       <r>   -7.9743    1.0000 </r>
       <r>   -6.9936    1.0000 </r>
       <r>    0.9394    1.0000 </r>
       <r>    1.5372    1.0000 </r>
       <r>    1.6687    1.0000 </r>
       <r>    3.3197    0.0000 </r>
       <r>    3.8776    0.0000 </r>
       <r>    4.7889    0.0000 </r>
       <r>    5.1718    0.0000 </r>
      </set>
      <set comment="kpoint 20">
       <r>  -29.2356    1.0000 </r>
       <r>  -29.2345    1.0000 </r>
       <r>  -21.1331    1.0000 </r>
       <r>  -19.0804    1.0000 </r>
       <r>  -19.0803    1.0000 </r>
       <r>  -19.0802    1.0000 </r>
       <r>  -19.0763    1.0000 </r>
       <r>  -19.0763    1.0000 </r>
       <r>  -12.7937    1.0000 </r>
       <r>  -12.7796    1.0000 </r>
       <r>  -12.7726    1.0000 </r>
       <r>  -12.7248    1.0000 </r>
       <r>  -12.7213    1.0000 </r>
       <r>  -12.7087    1.0000 </r>
       <r>   -8.0103    1.0000 </r>
       <r>   -8.0019    1.0000 </r>
       <r>   -7.9738    1.0000 </r>
       <r>   -6.9790    1.0000 </r>
       <r>    1.0750    1.0000 </r>
       <r>    1.1973    1.0000 </r>
       <r>    1.5783    1.0000 </r>
       <r>    3.6655    0.0000 </r>
       <r>    4.2150    0.0000 </r>
       <r>    4.8703    0.0000 </r>
       <r>    5.0189    0.0000 </r>
      </set>
      <set comment="kpoint 21">
       <r>  -29.2364    1.0000 </r>
       <r>  -29.2336    1.0000 </r>
       <r>  -21.1331    1.0000 </r>
       <r>  -19.0803    1.0000 </r>
       <r>  -19.0803    1.0000 </r>
       <r>  -19.0802    1.0000 </r>
       <r>  -19.0763    1.0000 </r>
       <r>  -19.0762    1.0000 </r>
       <r>  -12.7893    1.0000 </r>
       <r>  -12.7893    1.0000 </r>
       <r>  -12.7893    1.0000 </r>
       <r>  -12.7128    1.0000 </r>
       <r>  -12.7128    1.0000 </r>
       <r>  -12.7069    1.0000 </r>
       <r>   -8.0240    1.0000 </r>
       <r>   -7.9741    1.0000 </r>
       <r>   -7.9741    1.0000 </r>
       <r>   -7.0047    1.0000 </r>
       <r>    0.9475    1.0000 </r>
       <r>    1.7055    1.0000 </r>
       <r>    1.7055    1.0000 </r>
       <r>    3.0968    0.0000 </r>
       <r>    3.6675    0.0000 </r>
       <r>    4.7922    0.0000 </r>
       <r>    5.4523    0.0000 </r>
      </set>
      <set comment="kpoint 22">
       <r>  -29.2376    1.0000 </r>
       <r>  -29.2326    1.0000 </r>
       <r>  -21.1326    1.0000 </r>
       <r>  -19.0805    1.0000 </r>
       <r>  -19.0804    1.0000 </r>
       <r>  -19.0804    1.0000 </r>
       <r>  -19.0764    1.0000 </r>
       <r>  -19.0763    1.0000 </r>
       <r>  -12.7817    1.0000 </r>
       <r>  -12.7700    1.0000 </r>
       <r>  -12.7556    1.0000 </r>
       <r>  -12.7405    1.0000 </r>
       <r>  -12.7287    1.0000 </r>
       <r>  -12.7170    1.0000 </r>
       <r>   -8.0363    1.0000 </r>
       <r>   -7.9808    1.0000 </r>
       <r>   -7.9771    1.0000 </r>
       <r>   -6.9803    1.0000 </r>
       <r>    0.8150    1.0000 </r>
       <r>    1.5674    1.0000 </r>
       <r>    1.6335    1.0000 </r>
       <r>    3.6638    0.0000 </r>
       <r>    3.8956    0.0000 </r>
       <r>    4.6251    0.0000 </r>
       <r>    4.7798    0.0000 </r>
      </set>
      <set comment="kpoint 23">
       <r>  -29.2364    1.0000 </r>
       <r>  -29.2337    1.0000 </r>
       <r>  -21.1328    1.0000 </r>
       <r>  -19.0804    1.0000 </r>
       <r>  -19.0804    1.0000 </r>
       <r>  -19.0803    1.0000 </r>
       <r>  -19.0764    1.0000 </r>
       <r>  -19.0763    1.0000 </r>
       <r>  -12.7849    1.0000 </r>
       <r>  -12.7666    1.0000 </r>
       <r>  -12.7614    1.0000 </r>
       <r>  -12.7384    1.0000 </r>
       <r>  -12.7299    1.0000 </r>
       <r>  -12.7166    1.0000 </r>
       <r>   -8.0399    1.0000 </r>
       <r>   -7.9845    1.0000 </r>
       <r>   -7.9759    1.0000 </r>
       <r>   -6.9598    1.0000 </r>
       <r>    0.7924    1.0000 </r>
       <r>    1.4168    1.0000 </r>
       <r>    1.5147    1.0000 </r>
       <r>    3.9267    0.0000 </r>
       <r>    4.3241    0.0000 </r>
       <r>    4.6547    0.0000 </r>
       <r>    5.0026    0.0000 </r>
      </set>
      <set comment="kpoint 24">
       <r>  -29.2351    1.0000 </r>
       <r>  -29.2351    1.0000 </r>
       <r>  -21.1329    1.0000 </r>
       <r>  -19.0804    1.0000 </r>
       <r>  -19.0804    1.0000 </r>
       <r>  -19.0802    1.0000 </r>
       <r>  -19.0764    1.0000 </r>
       <r>  -19.0763    1.0000 </r>
       <r>  -12.7852    1.0000 </r>
       <r>  -12.7711    1.0000 </r>
       <r>  -12.7522    1.0000 </r>
       <r>  -12.7483    1.0000 </r>
       <r>  -12.7220    1.0000 </r>
       <r>  -12.7207    1.0000 </r>
       <r>   -8.0394    1.0000 </r>
       <r>   -7.9868    1.0000 </r>
       <r>   -7.9755    1.0000 </r>
       <r>   -6.9529    1.0000 </r>
       <r>    0.8043    1.0000 </r>
       <r>    1.3239    1.0000 </r>
       <r>    1.4836    1.0000 </r>
       <r>    4.1766    0.0000 </r>
       <r>    4.3285    0.0000 </r>
       <r>    4.8874    0.0000 </r>
       <r>    4.9002    0.0000 </r>
      </set>
      <set comment="kpoint 25">
       <r>  -29.2365    1.0000 </r>
       <r>  -29.2336    1.0000 </r>
       <r>  -21.1329    1.0000 </r>
       <r>  -19.0804    1.0000 </r>
       <r>  -19.0804    1.0000 </r>
       <r>  -19.0803    1.0000 </r>
       <r>  -19.0763    1.0000 </r>
       <r>  -19.0763    1.0000 </r>
       <r>  -12.7905    1.0000 </r>
       <r>  -12.7761    1.0000 </r>
       <r>  -12.7758    1.0000 </r>
       <r>  -12.7255    1.0000 </r>
       <r>  -12.7175    1.0000 </r>
       <r>  -12.7134    1.0000 </r>
       <r>   -8.0289    1.0000 </r>
       <r>   -7.9811    1.0000 </r>
       <r>   -7.9779    1.0000 </r>
       <r>   -6.9805    1.0000 </r>
       <r>    0.8758    1.0000 </r>
       <r>    1.5396    1.0000 </r>
       <r>    1.5552    1.0000 </r>
       <r>    3.5994    0.0000 </r>
       <r>    3.9893    0.0000 </r>
       <r>    4.7691    0.0000 </r>
       <r>    5.0401    0.0000 </r>
      </set>
      <set comment="kpoint 26">
       <r>  -29.2356    1.0000 </r>
       <r>  -29.2345    1.0000 </r>
       <r>  -21.1330    1.0000 </r>
       <r>  -19.0804    1.0000 </r>
       <r>  -19.0803    1.0000 </r>
       <r>  -19.0802    1.0000 </r>
       <r>  -19.0763    1.0000 </r>
       <r>  -19.0763    1.0000 </r>
       <r>  -12.7953    1.0000 </r>
       <r>  -12.7778    1.0000 </r>
       <r>  -12.7651    1.0000 </r>
       <r>  -12.7366    1.0000 </r>
       <r>  -12.7142    1.0000 </r>
       <r>  -12.7114    1.0000 </r>
       <r>   -8.0165    1.0000 </r>
       <r>   -7.9933    1.0000 </r>
       <r>   -7.9784    1.0000 </r>
       <r>   -6.9754    1.0000 </r>
       <r>    1.0163    1.0000 </r>
       <r>    1.2803    1.0000 </r>
       <r>    1.4979    1.0000 </r>
       <r>    3.8672    0.0000 </r>
       <r>    4.2250    0.0000 </r>
       <r>    4.6850    0.0000 </r>
       <r>    4.9101    0.0000 </r>
      </set>
      <set comment="kpoint 27">
       <r>  -29.2355    1.0000 </r>
       <r>  -29.2346    1.0000 </r>
       <r>  -21.1330    1.0000 </r>
       <r>  -19.0804    1.0000 </r>
       <r>  -19.0803    1.0000 </r>
       <r>  -19.0803    1.0000 </r>
       <r>  -19.0764    1.0000 </r>
       <r>  -19.0763    1.0000 </r>
       <r>  -12.7935    1.0000 </r>
       <r>  -12.7741    1.0000 </r>
       <r>  -12.7517    1.0000 </r>
       <r>  -12.7498    1.0000 </r>
       <r>  -12.7201    1.0000 </r>
       <r>  -12.7110    1.0000 </r>
       <r>   -8.0210    1.0000 </r>
       <r>   -7.9955    1.0000 </r>
       <r>   -7.9770    1.0000 </r>
       <r>   -6.9665    1.0000 </r>
       <r>    0.9662    1.0000 </r>
       <r>    1.2625    1.0000 </r>
       <r>    1.4688    1.0000 </r>
       <r>    4.1674    0.0000 </r>
       <r>    4.3739    0.0000 </r>
       <r>    4.3796    0.0000 </r>
       <r>    5.0556    0.0000 </r>
      </set>
      <set comment="kpoint 28">
       <r>  -29.2360    1.0000 </r>
       <r>  -29.2340    1.0000 </r>
       <r>  -21.1331    1.0000 </r>
       <r>  -19.0803    1.0000 </r>
       <r>  -19.0803    1.0000 </r>
       <r>  -19.0802    1.0000 </r>
       <r>  -19.0763    1.0000 </r>
       <r>  -19.0762    1.0000 </r>
       <r>  -12.7968    1.0000 </r>
       <r>  -12.7819    1.0000 </r>
       <r>  -12.7783    1.0000 </r>
       <r>  -12.7242    1.0000 </r>
       <r>  -12.7120    1.0000 </r>
       <r>  -12.7077    1.0000 </r>
       <r>   -8.0165    1.0000 </r>
       <r>   -7.9812    1.0000 </r>
       <r>   -7.9810    1.0000 </r>
       <r>   -6.9920    1.0000 </r>
       <r>    1.0115    1.0000 </r>
       <r>    1.5029    1.0000 </r>
       <r>    1.5245    1.0000 </r>
       <r>    3.4906    0.0000 </r>
       <r>    3.8993    0.0000 </r>
       <r>    4.8174    0.0000 </r>
       <r>    5.0986    0.0000 </r>
      </set>
      <set comment="kpoint 29">
       <r>  -29.2350    1.0000 </r>
       <r>  -29.2350    1.0000 </r>
       <r>  -21.1331    1.0000 </r>
       <r>  -19.0803    1.0000 </r>
       <r>  -19.0803    1.0000 </r>
       <r>  -19.0803    1.0000 </r>
       <r>  -19.0763    1.0000 </r>
       <r>  -19.0762    1.0000 </r>
       <r>  -12.7999    1.0000 </r>
       <r>  -12.7788    1.0000 </r>
       <r>  -12.7514    1.0000 </r>
       <r>  -12.7514    1.0000 </r>
       <r>  -12.7105    1.0000 </r>
       <r>  -12.7092    1.0000 </r>
       <r>   -7.9987    1.0000 </r>
       <r>   -7.9987    1.0000 </r>
       <r>   -7.9877    1.0000 </r>
       <r>   -6.9795    1.0000 </r>
       <r>    1.2048    1.0000 </r>
       <r>    1.2048    1.0000 </r>
       <r>    1.3760    1.0000 </r>
       <r>    4.0700    0.0000 </r>
       <r>    4.3091    0.0000 </r>
       <r>    4.3091    0.0000 </r>
       <r>    4.8400    0.0000 </r>
      </set>
     </set>
    </set>
   </array>
  </eigenvalues>
  <separator name="orbital magnetization" >
   <v name="MAGDIPOLOUT">      0.00000000      0.00000000      0.00000000</v>
  </separator>
  <dos>
   <i name="efermi">      1.97026468 </i>
   <total>
    <array>
     <dimension dim="1">gridpoints</dimension>
     <dimension dim="2">spin</dimension>
     <field>energy</field>
     <field>total</field>
     <field>integrated</field>
     <set>
      <set comment="spin 1">
       <r>   -30.9741     0.0000     0.0000 </r>
       <r>   -30.8469     0.0000     0.0000 </r>
       <r>   -30.7197     0.0000     0.0000 </r>
       <r>   -30.5925     0.0000     0.0000 </r>
       <r>   -30.4653     0.0000     0.0000 </r>
       <r>   -30.3381     0.0000     0.0000 </r>
       <r>   -30.2109     0.0000     0.0000 </r>
       <r>   -30.0837     0.0000     0.0000 </r>
       <r>   -29.9565     0.0000     0.0000 </r>
       <r>   -29.8293     0.0000     0.0000 </r>
       <r>   -29.7021     0.0000     0.0000 </r>
       <r>   -29.5749     0.0000     0.0000 </r>
       <r>   -29.4477     0.0000     0.0000 </r>
       <r>   -29.3205     0.2492     0.0317 </r>
       <r>   -29.1933    27.4609     3.5248 </r>
       <r>   -29.0661     3.7355     4.0000 </r>
       <r>   -28.9389     0.0000     4.0000 </r>
       <r>   -28.8117     0.0000     4.0000 </r>
       <r>   -28.6844     0.0000     4.0000 </r>
       <r>   -28.5572     0.0000     4.0000 </r>
       <r>   -28.4300     0.0000     4.0000 </r>
       <r>   -28.3028     0.0000     4.0000 </r>
       <r>   -28.1756     0.0000     4.0000 </r>
       <r>   -28.0484     0.0000     4.0000 </r>
       <r>   -27.9212     0.0000     4.0000 </r>
       <r>   -27.7940     0.0000     4.0000 </r>
       <r>   -27.6668     0.0000     4.0000 </r>
       <r>   -27.5396     0.0000     4.0000 </r>
       <r>   -27.4124     0.0000     4.0000 </r>
       <r>   -27.2852     0.0000     4.0000 </r>
       <r>   -27.1580     0.0000     4.0000 </r>
       <r>   -27.0308     0.0000     4.0000 </r>
       <r>   -26.9036     0.0000     4.0000 </r>
       <r>   -26.7764     0.0000     4.0000 </r>
       <r>   -26.6492     0.0000     4.0000 </r>
       <r>   -26.5220     0.0000     4.0000 </r>
       <r>   -26.3948     0.0000     4.0000 </r>
       <r>   -26.2676     0.0000     4.0000 </r>
       <r>   -26.1404     0.0000     4.0000 </r>
       <r>   -26.0132     0.0000     4.0000 </r>
       <r>   -25.8860     0.0000     4.0000 </r>
       <r>   -25.7588     0.0000     4.0000 </r>
       <r>   -25.6316     0.0000     4.0000 </r>
       <r>   -25.5044     0.0000     4.0000 </r>
       <r>   -25.3772     0.0000     4.0000 </r>
       <r>   -25.2500     0.0000     4.0000 </r>
       <r>   -25.1228     0.0000     4.0000 </r>
       <r>   -24.9955     0.0000     4.0000 </r>
       <r>   -24.8683     0.0000     4.0000 </r>
       <r>   -24.7411     0.0000     4.0000 </r>
       <r>   -24.6139     0.0000     4.0000 </r>
       <r>   -24.4867     0.0000     4.0000 </r>
       <r>   -24.3595     0.0000     4.0000 </r>
       <r>   -24.2323     0.0000     4.0000 </r>
       <r>   -24.1051     0.0000     4.0000 </r>
       <r>   -23.9779     0.0000     4.0000 </r>
       <r>   -23.8507     0.0000     4.0000 </r>
       <r>   -23.7235     0.0000     4.0000 </r>
       <r>   -23.5963     0.0000     4.0000 </r>
       <r>   -23.4691     0.0000     4.0000 </r>
       <r>   -23.3419     0.0000     4.0000 </r>
       <r>   -23.2147     0.0000     4.0000 </r>
       <r>   -23.0875     0.0000     4.0000 </r>
       <r>   -22.9603     0.0000     4.0000 </r>
       <r>   -22.8331     0.0000     4.0000 </r>
       <r>   -22.7059     0.0000     4.0000 </r>
       <r>   -22.5787     0.0000     4.0000 </r>
       <r>   -22.4515     0.0000     4.0000 </r>
       <r>   -22.3243     0.0000     4.0000 </r>
       <r>   -22.1971     0.0000     4.0000 </r>
       <r>   -22.0699     0.0000     4.0000 </r>
       <r>   -21.9427     0.0000     4.0000 </r>
       <r>   -21.8155     0.0000     4.0000 </r>
       <r>   -21.6883     0.0000     4.0000 </r>
       <r>   -21.5611     0.0000     4.0000 </r>
       <r>   -21.4338     0.0000     4.0000 </r>
       <r>   -21.3066     0.0000     4.0000 </r>
       <r>   -21.1794     1.4699     4.1870 </r>
       <r>   -21.0522    14.0743     5.9773 </r>
       <r>   -20.9250     0.1786     6.0000 </r>
       <r>   -20.7978     0.0000     6.0000 </r>
       <r>   -20.6706     0.0000     6.0000 </r>
       <r>   -20.5434     0.0000     6.0000 </r>
       <r>   -20.4162     0.0000     6.0000 </r>
       <r>   -20.2890     0.0000     6.0000 </r>
       <r>   -20.1618     0.0000     6.0000 </r>
       <r>   -20.0346     0.0000     6.0000 </r>
       <r>   -19.9074     0.0000     6.0000 </r>
       <r>   -19.7802     0.0000     6.0000 </r>
       <r>   -19.6530     0.0000     6.0000 </r>
       <r>   -19.5258     0.0000     6.0000 </r>
       <r>   -19.3986     0.0000     6.0000 </r>
       <r>   -19.2714     0.0000     6.0000 </r>
       <r>   -19.1442     2.5414     6.3233 </r>
       <r>   -19.0170    72.8868    15.5947 </r>
       <r>   -18.8898     3.1860    16.0000 </r>
       <r>   -18.7626     0.0000    16.0000 </r>
       <r>   -18.6354     0.0000    16.0000 </r>
       <r>   -18.5082     0.0000    16.0000 </r>
       <r>   -18.3810     0.0000    16.0000 </r>
       <r>   -18.2538     0.0000    16.0000 </r>
       <r>   -18.1266     0.0000    16.0000 </r>
       <r>   -17.9994     0.0000    16.0000 </r>
       <r>   -17.8722     0.0000    16.0000 </r>
       <r>   -17.7449     0.0000    16.0000 </r>
       <r>   -17.6177     0.0000    16.0000 </r>
       <r>   -17.4905     0.0000    16.0000 </r>
       <r>   -17.3633     0.0000    16.0000 </r>
       <r>   -17.2361     0.0000    16.0000 </r>
       <r>   -17.1089     0.0000    16.0000 </r>
       <r>   -16.9817     0.0000    16.0000 </r>
       <r>   -16.8545     0.0000    16.0000 </r>
       <r>   -16.7273     0.0000    16.0000 </r>
       <r>   -16.6001     0.0000    16.0000 </r>
       <r>   -16.4729     0.0000    16.0000 </r>
       <r>   -16.3457     0.0000    16.0000 </r>
       <r>   -16.2185     0.0000    16.0000 </r>
       <r>   -16.0913     0.0000    16.0000 </r>
       <r>   -15.9641     0.0000    16.0000 </r>
       <r>   -15.8369     0.0000    16.0000 </r>
       <r>   -15.7097     0.0000    16.0000 </r>
       <r>   -15.5825     0.0000    16.0000 </r>
       <r>   -15.4553     0.0000    16.0000 </r>
       <r>   -15.3281     0.0000    16.0000 </r>
       <r>   -15.2009     0.0000    16.0000 </r>
       <r>   -15.0737     0.0000    16.0000 </r>
       <r>   -14.9465     0.0000    16.0000 </r>
       <r>   -14.8193     0.0000    16.0000 </r>
       <r>   -14.6921     0.0000    16.0000 </r>
       <r>   -14.5649     0.0000    16.0000 </r>
       <r>   -14.4377     0.0000    16.0000 </r>
       <r>   -14.3105     0.0000    16.0000 </r>
       <r>   -14.1833     0.0000    16.0000 </r>
       <r>   -14.0560     0.0000    16.0000 </r>
       <r>   -13.9288     0.0000    16.0000 </r>
       <r>   -13.8016     0.0000    16.0000 </r>
       <r>   -13.6744     0.0000    16.0000 </r>
       <r>   -13.5472     0.0000    16.0000 </r>
       <r>   -13.4200     0.0000    16.0000 </r>
       <r>   -13.2928     0.0000    16.0000 </r>
       <r>   -13.1656     0.0000    16.0000 </r>
       <r>   -13.0384     0.0000    16.0000 </r>
       <r>   -12.9112     0.0047    16.0006 </r>
       <r>   -12.7840    20.6797    18.6311 </r>
       <r>   -12.6568    72.2101    27.8165 </r>
       <r>   -12.5296     1.4426    28.0000 </r>
       <r>   -12.4024     0.0000    28.0000 </r>
       <r>   -12.2752     0.0000    28.0000 </r>
       <r>   -12.1480     0.0000    28.0000 </r>
       <r>   -12.0208     0.0000    28.0000 </r>
       <r>   -11.8936     0.0000    28.0000 </r>
       <r>   -11.7664     0.0000    28.0000 </r>
       <r>   -11.6392     0.0000    28.0000 </r>
       <r>   -11.5120     0.0000    28.0000 </r>
       <r>   -11.3848     0.0000    28.0000 </r>
       <r>   -11.2576     0.0000    28.0000 </r>
       <r>   -11.1304     0.0000    28.0000 </r>
       <r>   -11.0032     0.0000    28.0000 </r>
       <r>   -10.8760     0.0000    28.0000 </r>
       <r>   -10.7488     0.0000    28.0000 </r>
       <r>   -10.6216     0.0000    28.0000 </r>
       <r>   -10.4943     0.0000    28.0000 </r>
       <r>   -10.3671     0.0000    28.0000 </r>
       <r>   -10.2399     0.0000    28.0000 </r>
       <r>   -10.1127     0.0000    28.0000 </r>
       <r>    -9.9855     0.0000    28.0000 </r>
       <r>    -9.8583     0.0000    28.0000 </r>
       <r>    -9.7311     0.0000    28.0000 </r>
       <r>    -9.6039     0.0000    28.0000 </r>
       <r>    -9.4767     0.0000    28.0000 </r>
       <r>    -9.3495     0.0000    28.0000 </r>
       <r>    -9.2223     0.0000    28.0000 </r>
       <r>    -9.0951     0.0000    28.0000 </r>
       <r>    -8.9679     0.0000    28.0000 </r>
       <r>    -8.8407     0.0000    28.0000 </r>
       <r>    -8.7135     0.0000    28.0000 </r>
       <r>    -8.5863     0.0000    28.0000 </r>
       <r>    -8.4591     0.0000    28.0000 </r>
       <r>    -8.3319     0.0000    28.0000 </r>
       <r>    -8.2047     0.0000    28.0000 </r>
       <r>    -8.0775     1.9667    28.2502 </r>
       <r>    -7.9503    38.6679    33.1689 </r>
       <r>    -7.8231     6.5337    34.0000 </r>
       <r>    -7.6959     0.0002    34.0000 </r>
       <r>    -7.5687     0.0000    34.0000 </r>
       <r>    -7.4415     0.0000    34.0000 </r>
       <r>    -7.3143     0.0000    34.0000 </r>
       <r>    -7.1871     0.0001    34.0000 </r>
       <r>    -7.0599     0.4234    34.0539 </r>
       <r>    -6.9327    12.7454    35.6751 </r>
       <r>    -6.8054     2.5538    36.0000 </r>
       <r>    -6.6782     0.0002    36.0000 </r>
       <r>    -6.5510     0.0000    36.0000 </r>
       <r>    -6.4238     0.0000    36.0000 </r>
       <r>    -6.2966     0.0000    36.0000 </r>
       <r>    -6.1694     0.0000    36.0000 </r>
       <r>    -6.0422     0.0000    36.0000 </r>
       <r>    -5.9150     0.0000    36.0000 </r>
       <r>    -5.7878     0.0000    36.0000 </r>
       <r>    -5.6606     0.0000    36.0000 </r>
       <r>    -5.5334     0.0000    36.0000 </r>
       <r>    -5.4062     0.0000    36.0000 </r>
       <r>    -5.2790     0.0000    36.0000 </r>
       <r>    -5.1518     0.0000    36.0000 </r>
       <r>    -5.0246     0.0000    36.0000 </r>
       <r>    -4.8974     0.0000    36.0000 </r>
       <r>    -4.7702     0.0000    36.0000 </r>
       <r>    -4.6430     0.0000    36.0000 </r>
       <r>    -4.5158     0.0000    36.0000 </r>
       <r>    -4.3886     0.0000    36.0000 </r>
       <r>    -4.2614     0.0000    36.0000 </r>
       <r>    -4.1342     0.0000    36.0000 </r>
       <r>    -4.0070     0.0000    36.0000 </r>
       <r>    -3.8798     0.0000    36.0000 </r>
       <r>    -3.7526     0.0000    36.0000 </r>
       <r>    -3.6254     0.0000    36.0000 </r>
       <r>    -3.4982     0.0000    36.0000 </r>
       <r>    -3.3710     0.0000    36.0000 </r>
       <r>    -3.2438     0.0000    36.0000 </r>
       <r>    -3.1165     0.0000    36.0000 </r>
       <r>    -2.9893     0.0000    36.0000 </r>
       <r>    -2.8621     0.0000    36.0000 </r>
       <r>    -2.7349     0.0000    36.0000 </r>
       <r>    -2.6077     0.0000    36.0000 </r>
       <r>    -2.4805     0.0000    36.0000 </r>
       <r>    -2.3533     0.0000    36.0000 </r>
       <r>    -2.2261     0.0000    36.0000 </r>
       <r>    -2.0989     0.0000    36.0000 </r>
       <r>    -1.9717     0.0000    36.0000 </r>
       <r>    -1.8445     0.0000    36.0000 </r>
       <r>    -1.7173     0.0000    36.0000 </r>
       <r>    -1.5901     0.0000    36.0000 </r>
       <r>    -1.4629     0.0000    36.0000 </r>
       <r>    -1.3357     0.0000    36.0000 </r>
       <r>    -1.2085     0.0000    36.0000 </r>
       <r>    -1.0813     0.0000    36.0000 </r>
       <r>    -0.9541     0.0000    36.0000 </r>
       <r>    -0.8269     0.0000    36.0000 </r>
       <r>    -0.6997     0.0000    36.0000 </r>
       <r>    -0.5725     0.0000    36.0000 </r>
       <r>    -0.4453     0.0000    36.0000 </r>
       <r>    -0.3181     0.0000    36.0000 </r>
       <r>    -0.1909     0.0000    36.0000 </r>
       <r>    -0.0637     0.0000    36.0000 </r>
       <r>     0.0635     0.0000    36.0000 </r>
       <r>     0.1907     0.0000    36.0000 </r>
       <r>     0.3179     0.0000    36.0000 </r>
       <r>     0.4452     0.0000    36.0000 </r>
       <r>     0.5724     0.0810    36.0103 </r>
       <r>     0.6996     1.5730    36.2104 </r>
       <r>     0.8268     5.0388    36.8513 </r>
       <r>     0.9540     4.8778    37.4718 </r>
       <r>     1.0812     3.2351    37.8833 </r>
       <r>     1.2084     0.8855    37.9960 </r>
       <r>     1.3356     4.0106    38.5061 </r>
       <r>     1.4628     6.3986    39.3201 </r>
       <r>     1.5900    12.5818    40.9205 </r>
       <r>     1.7172     6.2402    41.7143 </r>
       <r>     1.8444     2.2003    41.9942 </r>
       <r>     1.9716     0.0458    42.0000 </r>
       <r>     2.0988     0.0093    42.0012 </r>
       <r>     2.2260     0.0214    42.0039 </r>
       <r>     2.3532     0.0000    42.0039 </r>
       <r>     2.4804     0.0000    42.0039 </r>
       <r>     2.6076     0.0000    42.0039 </r>
       <r>     2.7348     0.1497    42.0230 </r>
       <r>     2.8620     0.2797    42.0585 </r>
       <r>     2.9892     0.0005    42.0586 </r>
       <r>     3.1164     0.0939    42.0705 </r>
       <r>     3.2436     0.5580    42.1415 </r>
       <r>     3.3708     1.5425    42.3377 </r>
       <r>     3.4980     0.6877    42.4252 </r>
       <r>     3.6252     1.6444    42.6344 </r>
       <r>     3.7524     3.3255    43.0574 </r>
       <r>     3.8796     3.0717    43.4482 </r>
       <r>     4.0068     4.6733    44.0426 </r>
       <r>     4.1341     3.0592    44.4318 </r>
       <r>     4.2613     4.1577    44.9606 </r>
       <r>     4.3885     7.2165    45.8786 </r>
       <r>     4.5157     2.8138    46.2365 </r>
       <r>     4.6429     3.0256    46.6214 </r>
       <r>     4.7701     8.6178    47.7176 </r>
       <r>     4.8973     6.9498    48.6016 </r>
       <r>     5.0245     7.1151    49.5067 </r>
       <r>     5.1517     3.2293    49.9175 </r>
       <r>     5.2789     0.5557    49.9882 </r>
       <r>     5.4061     0.0097    49.9894 </r>
       <r>     5.5333     0.0823    49.9999 </r>
       <r>     5.6605     0.0010    50.0000 </r>
       <r>     5.7877     0.0000    50.0000 </r>
       <r>     5.9149     0.0000    50.0000 </r>
       <r>     6.0421     0.0000    50.0000 </r>
       <r>     6.1693     0.0000    50.0000 </r>
       <r>     6.2965     0.0000    50.0000 </r>
       <r>     6.4237     0.0000    50.0000 </r>
       <r>     6.5509     0.0000    50.0000 </r>
       <r>     6.6781     0.0000    50.0000 </r>
       <r>     6.8053     0.0000    50.0000 </r>
       <r>     6.9325     0.0000    50.0000 </r>
       <r>     7.0597     0.0000    50.0000 </r>
       <r>     7.1869     0.0000    50.0000 </r>
      </set>
     </set>
    </array>
   </total>
  </dos>
 </calculation>
 <structure name="finalpos" >
  <crystal>
   <varray name="basis" >
    <v>       0.00000000       4.45935953       4.45935953 </v>
    <v>       4.45935953       0.00000000       4.45935953 </v>
    <v>       4.45935953       4.45935953       0.00000000 </v>
   </varray>
   <i name="volume">    177.35664301 </i>
   <varray name="rec_basis" >
    <v>      -0.11212372       0.11212372       0.11212372 </v>
    <v>       0.11212372      -0.11212372       0.11212372 </v>
    <v>       0.11212372       0.11212372      -0.11212372 </v>
   </varray>
  </crystal>
  <varray name="positions" >
   <v>       0.25000051       0.25000051       0.25000051 </v>
   <v>       0.75000039       0.75000039       0.75000039 </v>
   <v>       0.00000000       0.00000000       0.00000000 </v>
   <v>       0.49999989       0.49999989       0.49999989 </v>
  </varray>
 </structure>
</modeling>
