unknown system                          
           1
     0.000000    4.459360    4.459360
     4.459360    0.000000    4.459360
     4.459360    4.459360    0.000000
   Bi   Cs   K 
   1   1   2
Direct configuration=     1
   0.25000051  0.25000051  0.25000051
   0.75000039  0.75000039  0.75000039
   0.00000000  0.00000000  0.00000000
   0.49999989  0.49999989  0.49999989
