   4   4   0   0
  0.2142016E+02  0.4948413E-09  0.4948413E-09  0.4948413E-09  0.5000000E-15
  1.000000000000000E-004
  CAR 
 unknown system                          
     13.24175234    -45.71581372  301      3.81900137      1.00000000
    -45.716  0.0000E+00  0.0000E+00
    -45.519  0.0000E+00  0.0000E+00
    -45.323  0.0000E+00  0.0000E+00
    -45.126  0.0000E+00  0.0000E+00
    -44.930  0.0000E+00  0.0000E+00
    -44.733  0.0000E+00  0.0000E+00
    -44.537  0.0000E+00  0.0000E+00
    -44.340  0.0000E+00  0.0000E+00
    -44.144  0.0000E+00  0.0000E+00
    -43.947  0.0000E+00  0.0000E+00
    -43.751  0.0000E+00  0.0000E+00
    -43.554  0.0000E+00  0.0000E+00
    -43.358  0.0000E+00  0.0000E+00
    -43.161  0.3321E-02  0.6526E-03
    -42.964  0.1985E+02  0.3901E+01
    -42.768  0.5044E+00  0.4000E+01
    -42.571  0.0000E+00  0.4000E+01
    -42.375  0.0000E+00  0.4000E+01
    -42.178  0.0000E+00  0.4000E+01
    -41.982  0.0000E+00  0.4000E+01
    -41.785  0.0000E+00  0.4000E+01
    -41.589  0.0000E+00  0.4000E+01
    -41.392  0.0000E+00  0.4000E+01
    -41.196  0.0000E+00  0.4000E+01
    -40.999  0.0000E+00  0.4000E+01
    -40.803  0.0000E+00  0.4000E+01
    -40.606  0.0000E+00  0.4000E+01
    -40.410  0.0000E+00  0.4000E+01
    -40.213  0.0000E+00  0.4000E+01
    -40.017  0.0000E+00  0.4000E+01
    -39.820  0.0000E+00  0.4000E+01
    -39.624  0.0000E+00  0.4000E+01
    -39.427  0.0000E+00  0.4000E+01
    -39.230  0.0000E+00  0.4000E+01
    -39.034  0.0000E+00  0.4000E+01
    -38.837  0.0000E+00  0.4000E+01
    -38.641  0.0000E+00  0.4000E+01
    -38.444  0.0000E+00  0.4000E+01
    -38.248  0.0000E+00  0.4000E+01
    -38.051  0.0000E+00  0.4000E+01
    -37.855  0.0000E+00  0.4000E+01
    -37.658  0.0000E+00  0.4000E+01
    -37.462  0.0000E+00  0.4000E+01
    -37.265  0.0000E+00  0.4000E+01
    -37.069  0.0000E+00  0.4000E+01
    -36.872  0.0000E+00  0.4000E+01
    -36.676  0.0000E+00  0.4000E+01
    -36.479  0.0000E+00  0.4000E+01
    -36.283  0.0000E+00  0.4000E+01
    -36.086  0.0000E+00  0.4000E+01
    -35.890  0.0000E+00  0.4000E+01
    -35.693  0.0000E+00  0.4000E+01
    -35.497  0.0000E+00  0.4000E+01
    -35.300  0.0000E+00  0.4000E+01
    -35.103  0.0000E+00  0.4000E+01
    -34.907  0.0000E+00  0.4000E+01
    -34.710  0.0000E+00  0.4000E+01
    -34.514  0.0000E+00  0.4000E+01
    -34.317  0.0000E+00  0.4000E+01
    -34.121  0.0000E+00  0.4000E+01
    -33.924  0.0000E+00  0.4000E+01
    -33.728  0.0000E+00  0.4000E+01
    -33.531  0.0000E+00  0.4000E+01
    -33.335  0.0000E+00  0.4000E+01
    -33.138  0.0000E+00  0.4000E+01
    -32.942  0.0000E+00  0.4000E+01
    -32.745  0.0000E+00  0.4000E+01
    -32.549  0.0000E+00  0.4000E+01
    -32.352  0.0000E+00  0.4000E+01
    -32.156  0.0000E+00  0.4000E+01
    -31.959  0.0000E+00  0.4000E+01
    -31.763  0.0000E+00  0.4000E+01
    -31.566  0.0000E+00  0.4000E+01
    -31.369  0.0000E+00  0.4000E+01
    -31.173  0.0000E+00  0.4000E+01
    -30.976  0.0000E+00  0.4000E+01
    -30.780  0.0000E+00  0.4000E+01
    -30.583  0.0000E+00  0.4000E+01
    -30.387  0.0000E+00  0.4000E+01
    -30.190  0.0000E+00  0.4000E+01
    -29.994  0.0000E+00  0.4000E+01
    -29.797  0.0000E+00  0.4000E+01
    -29.601  0.0000E+00  0.4000E+01
    -29.404  0.0000E+00  0.4000E+01
    -29.208  0.0000E+00  0.4000E+01
    -29.011  0.0000E+00  0.4000E+01
    -28.815  0.0000E+00  0.4000E+01
    -28.618  0.0000E+00  0.4000E+01
    -28.422  0.0000E+00  0.4000E+01
    -28.225  0.0000E+00  0.4000E+01
    -28.029  0.0000E+00  0.4000E+01
    -27.832  0.0000E+00  0.4000E+01
    -27.635  0.0000E+00  0.4000E+01
    -27.439  0.0000E+00  0.4000E+01
    -27.242  0.0000E+00  0.4000E+01
    -27.046  0.0000E+00  0.4000E+01
    -26.849  0.0000E+00  0.4000E+01
    -26.653  0.0000E+00  0.4000E+01
    -26.456  0.0000E+00  0.4000E+01
    -26.260  0.0000E+00  0.4000E+01
    -26.063  0.0000E+00  0.4000E+01
    -25.867  0.0000E+00  0.4000E+01
    -25.670  0.0000E+00  0.4000E+01
    -25.474  0.0000E+00  0.4000E+01
    -25.277  0.0000E+00  0.4000E+01
    -25.081  0.0000E+00  0.4000E+01
    -24.884  0.0000E+00  0.4000E+01
    -24.688  0.0000E+00  0.4000E+01
    -24.491  0.0000E+00  0.4000E+01
    -24.295  0.0000E+00  0.4000E+01
    -24.098  0.0000E+00  0.4000E+01
    -23.902  0.0000E+00  0.4000E+01
    -23.705  0.0000E+00  0.4000E+01
    -23.508  0.0000E+00  0.4000E+01
    -23.312  0.0000E+00  0.4000E+01
    -23.115  0.0000E+00  0.4000E+01
    -22.919  0.0000E+00  0.4000E+01
    -22.722  0.0000E+00  0.4000E+01
    -22.526  0.0000E+00  0.4000E+01
    -22.329  0.0000E+00  0.4000E+01
    -22.133  0.0000E+00  0.4000E+01
    -21.936  0.0000E+00  0.4000E+01
    -21.740  0.0000E+00  0.4000E+01
    -21.543  0.0000E+00  0.4000E+01
    -21.347  0.0000E+00  0.4000E+01
    -21.150  0.2203E-08  0.4000E+01
    -20.954  0.6008E+01  0.5181E+01
    -20.757  0.2452E+02  0.1000E+02
    -20.561  0.3875E-04  0.1000E+02
    -20.364  0.0000E+00  0.1000E+02
    -20.168  0.0000E+00  0.1000E+02
    -19.971  0.0000E+00  0.1000E+02
    -19.774  0.0000E+00  0.1000E+02
    -19.578  0.0000E+00  0.1000E+02
    -19.381  0.0000E+00  0.1000E+02
    -19.185  0.0000E+00  0.1000E+02
    -18.988  0.0000E+00  0.1000E+02
    -18.792  0.0000E+00  0.1000E+02
    -18.595  0.0000E+00  0.1000E+02
    -18.399  0.0000E+00  0.1000E+02
    -18.202  0.2981E-01  0.1001E+02
    -18.006  0.5026E+02  0.1988E+02
    -17.809  0.5925E+00  0.2000E+02
    -17.613  0.0000E+00  0.2000E+02
    -17.416  0.0000E+00  0.2000E+02
    -17.220  0.0000E+00  0.2000E+02
    -17.023  0.0000E+00  0.2000E+02
    -16.827  0.0000E+00  0.2000E+02
    -16.630  0.0000E+00  0.2000E+02
    -16.434  0.0000E+00  0.2000E+02
    -16.237  0.0000E+00  0.2000E+02
    -16.041  0.0000E+00  0.2000E+02
    -15.844  0.0000E+00  0.2000E+02
    -15.647  0.0000E+00  0.2000E+02
    -15.451  0.0000E+00  0.2000E+02
    -15.254  0.0000E+00  0.2000E+02
    -15.058  0.0000E+00  0.2000E+02
    -14.861  0.0000E+00  0.2000E+02
    -14.665  0.0000E+00  0.2000E+02
    -14.468  0.0000E+00  0.2000E+02
    -14.272  0.0000E+00  0.2000E+02
    -14.075  0.0000E+00  0.2000E+02
    -13.879  0.0000E+00  0.2000E+02
    -13.682  0.0000E+00  0.2000E+02
    -13.486  0.0000E+00  0.2000E+02
    -13.289  0.0000E+00  0.2000E+02
    -13.093  0.0000E+00  0.2000E+02
    -12.896  0.0000E+00  0.2000E+02
    -12.700  0.0000E+00  0.2000E+02
    -12.503  0.0000E+00  0.2000E+02
    -12.307  0.0000E+00  0.2000E+02
    -12.110  0.0000E+00  0.2000E+02
    -11.913  0.0000E+00  0.2000E+02
    -11.717  0.0000E+00  0.2000E+02
    -11.520  0.0000E+00  0.2000E+02
    -11.324  0.0000E+00  0.2000E+02
    -11.127  0.0000E+00  0.2000E+02
    -10.931  0.0000E+00  0.2000E+02
    -10.734  0.0000E+00  0.2000E+02
    -10.538  0.0000E+00  0.2000E+02
    -10.341  0.0000E+00  0.2000E+02
    -10.145  0.0000E+00  0.2000E+02
     -9.948  0.0000E+00  0.2000E+02
     -9.752  0.0000E+00  0.2000E+02
     -9.555  0.0000E+00  0.2000E+02
     -9.359  0.0000E+00  0.2000E+02
     -9.162  0.0000E+00  0.2000E+02
     -8.966  0.0000E+00  0.2000E+02
     -8.769  0.0000E+00  0.2000E+02
     -8.573  0.0000E+00  0.2000E+02
     -8.376  0.0000E+00  0.2000E+02
     -8.179  0.0000E+00  0.2000E+02
     -7.983  0.0000E+00  0.2000E+02
     -7.786  0.0000E+00  0.2000E+02
     -7.590  0.0000E+00  0.2000E+02
     -7.393  0.0000E+00  0.2000E+02
     -7.197  0.0000E+00  0.2000E+02
     -7.000  0.7416E-13  0.2000E+02
     -6.804  0.2523E-02  0.2000E+02
     -6.607  0.6286E+00  0.2012E+02
     -6.411  0.2546E+01  0.2062E+02
     -6.214  0.6832E+01  0.2197E+02
     -6.018  0.1677E+00  0.2200E+02
     -5.821  0.0000E+00  0.2200E+02
     -5.625  0.0000E+00  0.2200E+02
     -5.428  0.0000E+00  0.2200E+02
     -5.232  0.0000E+00  0.2200E+02
     -5.035  0.0000E+00  0.2200E+02
     -4.839  0.0000E+00  0.2200E+02
     -4.642  0.0000E+00  0.2200E+02
     -4.446  0.0000E+00  0.2200E+02
     -4.249  0.0000E+00  0.2200E+02
     -4.052  0.0000E+00  0.2200E+02
     -3.856  0.0000E+00  0.2200E+02
     -3.659  0.0000E+00  0.2200E+02
     -3.463  0.0000E+00  0.2200E+02
     -3.266  0.0000E+00  0.2200E+02
     -3.070  0.0000E+00  0.2200E+02
     -2.873  0.0000E+00  0.2200E+02
     -2.677  0.0000E+00  0.2200E+02
     -2.480  0.0000E+00  0.2200E+02
     -2.284  0.0000E+00  0.2200E+02
     -2.087  0.0000E+00  0.2200E+02
     -1.891  0.0000E+00  0.2200E+02
     -1.694  0.0000E+00  0.2200E+02
     -1.498  0.0000E+00  0.2200E+02
     -1.301  0.0000E+00  0.2200E+02
     -1.105  0.0000E+00  0.2200E+02
     -0.908  0.0000E+00  0.2200E+02
     -0.712  0.0000E+00  0.2200E+02
     -0.515  0.0000E+00  0.2200E+02
     -0.318  0.0000E+00  0.2200E+02
     -0.122  0.5659E-08  0.2200E+02
      0.075  0.4911E-01  0.2201E+02
      0.271  0.6276E+00  0.2213E+02
      0.468  0.1115E+01  0.2235E+02
      0.664  0.2266E+01  0.2280E+02
      0.861  0.3005E+01  0.2339E+02
      1.057  0.1630E+01  0.2371E+02
      1.254  0.7616E+00  0.2386E+02
      1.450  0.1570E+01  0.2417E+02
      1.647  0.1947E+01  0.2455E+02
      1.843  0.2299E+01  0.2500E+02
      2.040  0.2792E+01  0.2555E+02
      2.236  0.1793E+01  0.2590E+02
      2.433  0.2506E+01  0.2639E+02
      2.629  0.2307E+01  0.2685E+02
      2.826  0.1909E+01  0.2722E+02
      3.022  0.2198E+01  0.2766E+02
      3.219  0.8413E+00  0.2782E+02
      3.415  0.3065E+00  0.2788E+02
      3.612  0.5586E+00  0.2799E+02
      3.809  0.4780E-01  0.2800E+02
      4.005  0.3648E-01  0.2801E+02
      4.202  0.4303E-01  0.2802E+02
      4.398  0.1440E+00  0.2804E+02
      4.595  0.4523E+00  0.2813E+02
      4.791  0.1108E+00  0.2815E+02
      4.988  0.5771E+00  0.2827E+02
      5.184  0.1431E+01  0.2855E+02
      5.381  0.8639E+00  0.2872E+02
      5.577  0.2494E+01  0.2921E+02
      5.774  0.1982E+01  0.2960E+02
      5.970  0.1312E+01  0.2986E+02
      6.167  0.9439E+00  0.3004E+02
      6.363  0.1398E+01  0.3032E+02
      6.560  0.4254E+01  0.3115E+02
      6.756  0.2429E+01  0.3163E+02
      6.953  0.2385E+01  0.3210E+02
      7.149  0.1147E+01  0.3232E+02
      7.346  0.2513E+01  0.3282E+02
      7.543  0.2554E+01  0.3332E+02
      7.739  0.9656E+00  0.3351E+02
      7.936  0.2887E+01  0.3408E+02
      8.132  0.1420E+01  0.3436E+02
      8.329  0.1654E+01  0.3468E+02
      8.525  0.4951E+00  0.3478E+02
      8.722  0.5381E+00  0.3488E+02
      8.918  0.1703E+01  0.3522E+02
      9.115  0.1771E+01  0.3557E+02
      9.311  0.2730E+00  0.3562E+02
      9.508  0.7250E+00  0.3576E+02
      9.704  0.1076E+01  0.3597E+02
      9.901  0.1099E-01  0.3598E+02
     10.097  0.0000E+00  0.3598E+02
     10.294  0.2066E-14  0.3598E+02
     10.490  0.2580E-02  0.3598E+02
     10.687  0.1167E+00  0.3600E+02
     10.883  0.2409E-04  0.3600E+02
     11.080  0.0000E+00  0.3600E+02
     11.277  0.0000E+00  0.3600E+02
     11.473  0.0000E+00  0.3600E+02
     11.670  0.0000E+00  0.3600E+02
     11.866  0.0000E+00  0.3600E+02
     12.063  0.0000E+00  0.3600E+02
     12.259  0.0000E+00  0.3600E+02
     12.456  0.0000E+00  0.3600E+02
     12.652  0.0000E+00  0.3600E+02
     12.849  0.0000E+00  0.3600E+02
     13.045  0.0000E+00  0.3600E+02
     13.242  0.0000E+00  0.3600E+02
