    4    4    1    1
  0.2142016E+02  0.4948413E-09  0.4948413E-09  0.4948413E-09  0.5000000E-15
  1.000000000000000E-004
  CAR 
 unknown system                          
     28     29     18
 
  0.0000000E+00  0.0000000E+00  0.0000000E+00  0.1953125E-02
    1      -43.035924   1.000000
    2      -43.031871   1.000000
    3      -20.922423   1.000000
    4      -20.922423   1.000000
    5      -20.922421   1.000000
    6      -18.092773   1.000000
    7      -18.092766   1.000000
    8      -18.092766   1.000000
    9      -18.082019   1.000000
   10      -18.082019   1.000000
   11       -6.758213   1.000000
   12        3.641617   1.000000
   13        3.641660   1.000000
   14        3.641660   1.000000
   15        4.067794   0.000000
   16        6.221246   0.000000
   17        6.221262   0.000000
   18        6.221262   0.000000
 
  0.1250000E+00  0.0000000E+00  0.0000000E+00  0.1562500E-01
    1      -43.035742   1.000000
    2      -43.032115   1.000000
    3      -20.922736   1.000000
    4      -20.922553   1.000000
    5      -20.922552   1.000000
    6      -18.092418   1.000000
    7      -18.092386   1.000000
    8      -18.092381   1.000000
    9      -18.081870   1.000000
   10      -18.081870   1.000000
   11       -6.706893   1.000000
   12        2.441262   1.000000
   13        3.489930   1.000000
   14        3.489970   1.000000
   15        4.832547   0.000000
   16        6.466419   0.000000
   17        6.466426   0.000000
   18        6.832841   0.000000
 
  0.2500000E+00  0.0000000E+00  0.0000000E+00  0.1562500E-01
    1      -43.035298   1.000000
    2      -43.032540   1.000000
    3      -20.923478   1.000000
    4      -20.922857   1.000000
    5      -20.922856   1.000000
    6      -18.091574   1.000000
    7      -18.091487   1.000000
    8      -18.091482   1.000000
    9      -18.081355   1.000000
   10      -18.081354   1.000000
   11       -6.575023   1.000000
   12        1.208150   1.000000
   13        3.206798   1.000000
   14        3.206841   1.000000
   15        5.137389   0.000000
   16        6.681512   0.000000
   17        6.681533   0.000000
   18        8.036463   0.000000
 
  0.3750000E+00  0.0000000E+00  0.0000000E+00  0.1562500E-01
    1      -43.034664   1.000000
    2      -43.033191   1.000000
    3      -20.924218   1.000000
    4      -20.923166   1.000000
    5      -20.923164   1.000000
    6      -18.090720   1.000000
    7      -18.090715   1.000000
    8      -18.090688   1.000000
    9      -18.080762   1.000000
   10      -18.080760   1.000000
   11       -6.429684   1.000000
   12        0.365862   1.000000
   13        2.989468   1.000000
   14        2.989515   1.000000
   15        5.249060   0.000000
   16        6.479896   0.000000
   17        6.479932   0.000000
   18        8.516926   0.000000
 
  0.5000000E+00  0.0000000E+00  0.0000000E+00  0.7812500E-02
    1      -43.033950   1.000000
    2      -43.033930   1.000000
    3      -20.924530   1.000000
    4      -20.923291   1.000000
    5      -20.923290   1.000000
    6      -18.090430   1.000000
    7      -18.090426   1.000000
    8      -18.090327   1.000000
    9      -18.080489   1.000000
   10      -18.080487   1.000000
   11       -6.364700   1.000000
   12        0.064084   1.000000
   13        2.911598   1.000000
   14        2.911646   1.000000
   15        5.282457   0.000000
   16        6.363809   0.000000
   17        6.363848   0.000000
   18        8.564769   0.000000
 
  0.1250000E+00  0.1250000E+00  0.0000000E+00  0.1171875E-01
    1      -43.035701   1.000000
    2      -43.032155   1.000000
    3      -20.922882   1.000000
    4      -20.922555   1.000000
    5      -20.922554   1.000000
    6      -18.092813   1.000000
    7      -18.092002   1.000000
    8      -18.091997   1.000000
    9      -18.081946   1.000000
   10      -18.081718   1.000000
   11       -6.690232   1.000000
   12        2.493096   1.000000
   13        3.186758   1.000000
   14        3.186783   1.000000
   15        5.285986   0.000000
   16        6.185469   0.000000
   17        6.895660   0.000000
   18        6.895675   0.000000
 
  0.2500000E+00  0.1250000E+00  0.0000000E+00  0.4687500E-01
    1      -43.035326   1.000000
    2      -43.032497   1.000000
    3      -20.923404   1.000000
    4      -20.922807   1.000000
    5      -20.922764   1.000000
    6      -18.092443   1.000000
    7      -18.091071   1.000000
    8      -18.091065   1.000000
    9      -18.081813   1.000000
   10      -18.081279   1.000000
   11       -6.586063   1.000000
   12        1.542964   1.000000
   13        2.860708   1.000000
   14        2.977462   1.000000
   15        5.538354   0.000000
   16        6.395694   0.000000
   17        7.116100   0.000000
   18        7.329155   0.000000
 
  0.3750000E+00  0.1250000E+00  0.0000000E+00  0.4687500E-01
    1      -43.034805   1.000000
    2      -43.033012   1.000000
    3      -20.924010   1.000000
    4      -20.923159   1.000000
    5      -20.923069   1.000000
    6      -18.091559   1.000000
    7      -18.090252   1.000000
    8      -18.090232   1.000000
    9      -18.081430   1.000000
   10      -18.080705   1.000000
   11       -6.444679   1.000000
   12        0.655424   1.000000
   13        2.677272   1.000000
   14        2.696201   1.000000
   15        5.554206   0.000000
   16        6.489937   0.000000
   17        7.160839   0.000000
   18        7.648329   0.000000
 
  0.5000000E+00  0.1250000E+00  0.0000000E+00  0.4687500E-01
    1      -43.034153   1.000000
    2      -43.033669   1.000000
    3      -20.924383   1.000000
    4      -20.923357   1.000000
    5      -20.923283   1.000000
    6      -18.090735   1.000000
    7      -18.089943   1.000000
    8      -18.089917   1.000000
    9      -18.081003   1.000000
   10      -18.080428   1.000000
   11       -6.350528   1.000000
   12        0.200478   1.000000
   13        2.434834   1.000000
   14        2.685846   1.000000
   15        5.585268   0.000000
   16        6.436551   0.000000
   17        6.849326   0.000000
   18        8.794730   0.000000
 
 -0.3750000E+00  0.1250000E+00  0.0000000E+00  0.4687500E-01
    1      -43.034350   1.000000
    2      -43.033480   1.000000
    3      -20.924317   1.000000
    4      -20.923283   1.000000
    5      -20.923278   1.000000
    6      -18.090417   1.000000
    7      -18.090292   1.000000
    8      -18.090222   1.000000
    9      -18.080869   1.000000
   10      -18.080678   1.000000
   11       -6.371657   1.000000
   12        0.292550   1.000000
   13        2.319382   1.000000
   14        2.879501   1.000000
   15        5.637568   0.000000
   16        6.531224   0.000000
   17        6.720686   0.000000
   18        8.930362   0.000000
 
 -0.2500000E+00  0.1250000E+00  0.0000000E+00  0.4687500E-01
    1      -43.034984   1.000000
    2      -43.032861   1.000000
    3      -20.923831   1.000000
    4      -20.923069   1.000000
    5      -20.922984   1.000000
    6      -18.091192   1.000000
    7      -18.091024   1.000000
    8      -18.090705   1.000000
    9      -18.081215   1.000000
   10      -18.081128   1.000000
   11       -6.491874   1.000000
   12        0.893109   1.000000
   13        2.417776   1.000000
   14        3.199175   1.000000
   15        5.581532   0.000000
   16        6.777929   0.000000
   17        6.843308   0.000000
   18        7.946315   0.000000
 
 -0.1250000E+00  0.1250000E+00  0.0000000E+00  0.2343750E-01
    1      -43.035472   1.000000
    2      -43.032364   1.000000
    3      -20.923179   1.000000
    4      -20.922767   1.000000
    5      -20.922677   1.000000
    6      -18.092064   1.000000
    7      -18.091960   1.000000
    8      -18.091495   1.000000
    9      -18.081685   1.000000
   10      -18.081544   1.000000
   11       -6.628871   1.000000
   12        1.769291   1.000000
   13        2.817315   1.000000
   14        3.490144   1.000000
   15        5.300467   0.000000
   16        6.573764   0.000000
   17        7.083871   0.000000
   18        7.158515   0.000000
 
  0.2500000E+00  0.2500000E+00  0.0000000E+00  0.1171875E-01
    1      -43.035169   1.000000
    2      -43.032626   1.000000
    3      -20.923670   1.000000
    4      -20.922849   1.000000
    5      -20.922848   1.000000
    6      -18.092867   1.000000
    7      -18.090089   1.000000
    8      -18.090085   1.000000
    9      -18.082266   1.000000
   10      -18.080953   1.000000
   11       -6.519690   1.000000
   12        1.491021   1.000000
   13        2.488136   1.000000
   14        2.488156   1.000000
   15        5.245434   0.000000
   16        6.106789   0.000000
   17        8.156373   0.000000
   18        8.157845   0.000000
 
  0.3750000E+00  0.2500000E+00  0.0000000E+00  0.4687500E-01
    1      -43.034851   1.000000
    2      -43.032994   1.000000
    3      -20.923949   1.000000
    4      -20.923123   1.000000
    5      -20.923055   1.000000
    6      -18.092517   1.000000
    7      -18.089208   1.000000
    8      -18.089198   1.000000
    9      -18.082453   1.000000
   10      -18.080513   1.000000
   11       -6.408245   1.000000
   12        0.956711   1.000000
   13        2.160337   1.000000
   14        2.271911   1.000000
   15        5.026538   0.000000
   16        6.376473   0.000000
   17        7.950365   0.000000
   18        8.360720   0.000000
 
  0.5000000E+00  0.2500000E+00  0.0000000E+00  0.4687500E-01
    1      -43.034353   1.000000
    2      -43.033466   1.000000
    3      -20.924082   1.000000
    4      -20.923468   1.000000
    5      -20.923270   1.000000
    6      -18.091610   1.000000
    7      -18.088879   1.000000
    8      -18.088848   1.000000
    9      -18.082240   1.000000
   10      -18.080274   1.000000
   11       -6.314950   1.000000
   12        0.554510   1.000000
   13        1.740309   1.000000
   14        2.269353   1.000000
   15        5.156284   0.000000
   16        7.244496   0.000000
   17        7.804058   0.000000
   18        8.030638   0.000000
 
 -0.3750000E+00  0.2500000E+00  0.0000000E+00  0.4687500E-01
    1      -43.034006   1.000000
    2      -43.033810   1.000000
    3      -20.924145   1.000000
    4      -20.923528   1.000000
    5      -20.923362   1.000000
    6      -18.090773   1.000000
    7      -18.089303   1.000000
    8      -18.089153   1.000000
    9      -18.081736   1.000000
   10      -18.080461   1.000000
   11       -6.302004   1.000000
   12        0.491280   1.000000
   13        1.492891   1.000000
   14        2.480476   1.000000
   15        5.427205   0.000000
   16        7.419535   0.000000
   17        7.759748   0.000000
   18        8.841572   0.000000
 
 -0.2500000E+00  0.2500000E+00  0.0000000E+00  0.2343750E-01
    1      -43.034563   1.000000
    2      -43.033242   1.000000
    3      -20.924101   1.000000
    4      -20.923276   1.000000
    5      -20.923260   1.000000
    6      -18.090417   1.000000
    7      -18.090241   1.000000
    8      -18.090025   1.000000
    9      -18.081253   1.000000
   10      -18.080882   1.000000
   11       -6.378546   1.000000
   12        0.663691   1.000000
   13        1.685552   1.000000
   14        2.849017   1.000000
   15        5.722571   0.000000
   16        7.083452   0.000000
   17        7.630240   0.000000
   18        7.772408   0.000000
 
  0.3750000E+00  0.3750000E+00  0.0000000E+00  0.1171875E-01
    1      -43.034736   1.000000
    2      -43.033107   1.000000
    3      -20.924022   1.000000
    4      -20.923133   1.000000
    5      -20.923132   1.000000
    6      -18.092947   1.000000
    7      -18.088237   1.000000
    8      -18.088232   1.000000
    9      -18.083227   1.000000
   10      -18.080187   1.000000
   11       -6.339182   1.000000
   12        0.885620   1.000000
   13        2.003929   1.000000
   14        2.003948   1.000000
   15        4.354946   0.000000
   16        6.036946   0.000000
   17        9.456583   0.000000
   18        9.456593   0.000000
 
  0.5000000E+00  0.3750000E+00  0.0000000E+00  0.4687500E-01
    1      -43.034486   1.000000
    2      -43.033322   1.000000
    3      -20.923996   1.000000
    4      -20.923364   1.000000
    5      -20.923254   1.000000
    6      -18.092568   1.000000
    7      -18.087860   1.000000
    8      -18.087836   1.000000
    9      -18.083379   1.000000
   10      -18.080014   1.000000
   11       -6.277347   1.000000
   12        0.760020   1.000000
   13        1.584054   1.000000
   14        1.950426   1.000000
   15        4.447873   0.000000
   16        6.316588   0.000000
   17        9.340830   0.000000
   18        9.532920   0.000000
 
 -0.3750000E+00  0.3750000E+00  0.0000000E+00  0.2343750E-01
    1      -43.034176   1.000000
    2      -43.033644   1.000000
    3      -20.923816   1.000000
    4      -20.923764   1.000000
    5      -20.923351   1.000000
    6      -18.091648   1.000000
    7      -18.088303   1.000000
    8      -18.088185   1.000000
    9      -18.082804   1.000000
   10      -18.080172   1.000000
   11       -6.261780   1.000000
   12        0.940286   1.000000
   13        0.958894   1.000000
   14        2.122693   1.000000
   15        4.935514   0.000000
   16        7.254277   0.000000
   17        8.686295   0.000000
   18        9.132537   0.000000
 
  0.5000000E+00  0.5000000E+00  0.0000000E+00  0.5859375E-02
    1      -43.034545   1.000000
    2      -43.033223   1.000000
    3      -20.924031   1.000000
    4      -20.923248   1.000000
    5      -20.923247   1.000000
    6      -18.092974   1.000000
    7      -18.087435   1.000000
    8      -18.087430   1.000000
    9      -18.083799   1.000000
   10      -18.079878   1.000000
   11       -6.261120   1.000000
   12        0.686975   1.000000
   13        1.835884   1.000000
   14        1.835902   1.000000
   15        3.996194   0.000000
   16        6.010701   0.000000
   17       10.561852   0.000000
   18       10.561863   0.000000
 
  0.3750000E+00  0.2500000E+00  0.1250000E+00  0.4687500E-01
    1      -43.034983   1.000000
    2      -43.032839   1.000000
    3      -20.923813   1.000000
    4      -20.923049   1.000000
    5      -20.922971   1.000000
    6      -18.092069   1.000000
    7      -18.090245   1.000000
    8      -18.090097   1.000000
    9      -18.081841   1.000000
   10      -18.080857   1.000000
   11       -6.477391   1.000000
   12        1.070799   1.000000
   13        2.201483   1.000000
   14        2.824372   1.000000
   15        5.680175   0.000000
   16        6.635547   0.000000
   17        6.850373   0.000000
   18        8.210985   0.000000
 
  0.5000000E+00  0.2500000E+00  0.1250000E+00  0.9375000E-01
    1      -43.034488   1.000000
    2      -43.033321   1.000000
    3      -20.924117   1.000000
    4      -20.923330   1.000000
    5      -20.923248   1.000000
    6      -18.091154   1.000000
    7      -18.089944   1.000000
    8      -18.089198   1.000000
    9      -18.081715   1.000000
   10      -18.080521   1.000000
   11       -6.360095   1.000000
   12        0.581255   1.000000
   13        1.879900   1.000000
   14        2.514862   1.000000
   15        5.864748   0.000000
   16        6.487354   0.000000
   17        7.426470   0.000000
   18        8.192909   0.000000
 
 -0.3750000E+00  0.2500000E+00  0.1250000E+00  0.4687500E-01
    1      -43.033909   1.000000
    2      -43.033898   1.000000
    3      -20.924215   1.000000
    4      -20.923471   1.000000
    5      -20.923366   1.000000
    6      -18.090331   1.000000
    7      -18.090255   1.000000
    8      -18.088854   1.000000
    9      -18.081625   1.000000
   10      -18.080389   1.000000
   11       -6.308560   1.000000
   12        0.374534   1.000000
   13        1.820814   1.000000
   14        2.350059   1.000000
   15        5.991403   0.000000
   16        6.274208   0.000000
   17        7.888558   0.000000
   18        8.971274   0.000000
 
  0.5000000E+00  0.3750000E+00  0.1250000E+00  0.4687500E-01
    1      -43.034521   1.000000
    2      -43.033253   1.000000
    3      -20.924007   1.000000
    4      -20.923318   1.000000
    5      -20.923250   1.000000
    6      -18.092110   1.000000
    7      -18.088856   1.000000
    8      -18.088213   1.000000
    9      -18.082737   1.000000
   10      -18.080234   1.000000
   11       -6.321306   1.000000
   12        0.788887   1.000000
   13        1.757328   1.000000
   14        1.975942   1.000000
   15        5.073053   0.000000
   16        6.571653   0.000000
   17        7.779249   0.000000
   18        9.580608   0.000000
 
 -0.3750000E+00  0.3750000E+00  0.1250000E+00  0.9375000E-01
    1      -43.034133   1.000000
    2      -43.033641   1.000000
    3      -20.923919   1.000000
    4      -20.923606   1.000000
    5      -20.923413   1.000000
    6      -18.091185   1.000000
    7      -18.089236   1.000000
    8      -18.087837   1.000000
    9      -18.082637   1.000000
   10      -18.080203   1.000000
   11       -6.268932   1.000000
   12        0.758169   1.000000
   13        1.332536   1.000000
   14        1.860004   1.000000
   15        5.532019   0.000000
   16        7.284691   0.000000
   17        7.446993   0.000000
   18        9.035133   0.000000
 
 -0.2500000E+00  0.3750000E+00  0.1250000E+00  0.4687500E-01
    1      -43.034081   1.000000
    2      -43.033687   1.000000
    3      -20.924016   1.000000
    4      -20.923538   1.000000
    5      -20.923428   1.000000
    6      -18.090310   1.000000
    7      -18.090162   1.000000
    8      -18.088219   1.000000
    9      -18.082181   1.000000
   10      -18.080365   1.000000
   11       -6.285770   1.000000
   12        0.703543   1.000000
   13        1.296497   1.000000
   14        2.113080   1.000000
   15        5.977196   0.000000
   16        6.739994   0.000000
   17        7.874341   0.000000
   18        8.793413   0.000000
 
 -0.3750000E+00  0.5000000E+00  0.1250000E+00  0.2343750E-01
    1      -43.034348   1.000000
    2      -43.033428   1.000000
    3      -20.923920   1.000000
    4      -20.923469   1.000000
    5      -20.923368   1.000000
    6      -18.092154   1.000000
    7      -18.088233   1.000000
    8      -18.087437   1.000000
    9      -18.083340   1.000000
   10      -18.080016   1.000000
   11       -6.255379   1.000000
   12        0.811945   1.000000
   13        1.539759   1.000000
   14        1.601164   1.000000
   15        4.801599   0.000000
   16        6.542666   0.000000
   17        8.695444   0.000000
   18        9.644582   0.000000
 
 -0.2500000E+00  0.5000000E+00  0.2500000E+00  0.1171875E-01
    1      -43.033924   1.000000
    2      -43.033922   1.000000
    3      -20.923691   1.000000
    4      -20.923656   1.000000
    5      -20.923655   1.000000
    6      -18.090201   1.000000
    7      -18.090197   1.000000
    8      -18.087466   1.000000
    9      -18.082850   1.000000
   10      -18.080201   1.000000
   11       -6.249612   1.000000
   12        1.157451   1.000000
   13        1.157487   1.000000
   14        1.323126   1.000000
   15        6.438626   0.000000
   16        6.625499   0.000000
   17        7.870903   0.000000
   18        7.870910   0.000000
