 running on   28 total cores
 distrk:  each k-point on    7 cores,    4 groups
 distr:  one band on    7 cores,    1 groups
 using from now: INCAR     
 vasp.5.4.4.18Apr17-6-g9f103f2a35 (build Jun 23 2019 17:35:09) complex          
  
 POSCAR found type information on POSCAR  Bi Li Na
 POSCAR found :  3 types and       4 ions
 scaLAPACK will be used

 ----------------------------------------------------------------------------- 
|                                                                             |
|           W    W    AA    RRRRR   N    N  II  N    N   GGGG   !!!           |
|           W    W   A  A   R    R  NN   N  II  NN   N  G    G  !!!           |
|           W    W  A    A  R    R  N N  N  II  N N  N  G       !!!           |
|           W WW W  AAAAAA  RRRRR   N  N N  II  N  N N  G  GGG   !            |
|           WW  WW  A    A  R   R   N   NN  II  N   NN  G    G                |
|           W    W  A    A  R    R  N    N  II  N    N   GGGG   !!!           |
|                                                                             |
|      You have enabled k-point parallelism (KPAR>1).                         |
|      This developmental code was originally  written by Paul Kent at ORNL,  |
|      and carefully double checked in Vienna.                                |
|      GW as well as linear response parallelism added by Martijn Marsman     |
|      and Georg Kresse.                                                      |
|      Carefully verify results versus KPAR=1.                                |
|      Report problems to Paul Kent and Vienna.                               |
|                                                                             |
 ----------------------------------------------------------------------------- 

 LDA part: xc-table for Pade appr. of Perdew
 POSCAR, INCAR and KPOINTS ok, starting setup
 FFT: planning ...
 WAVECAR not read
 entering main loop
       N       E                     dE             d eps       ncg     rms          rms(c)
DAV:   1     0.230985169660E+03    0.23099E+03   -0.14231E+04  1044   0.175E+03
DAV:   2     0.983684307060E+01   -0.22115E+03   -0.21770E+03  1056   0.423E+02
DAV:   3    -0.962645113325E+01   -0.19463E+02   -0.19168E+02  1740   0.132E+02
DAV:   4    -0.110686837923E+02   -0.14422E+01   -0.14335E+01  1760   0.265E+01
DAV:   5    -0.111981466050E+02   -0.12946E+00   -0.12942E+00  1616   0.479E+00    0.201E+00
DAV:   6    -0.110762893792E+02    0.12186E+00   -0.13257E-01  1514   0.342E+00    0.107E+00
DAV:   7    -0.110240634201E+02    0.52226E-01   -0.11716E-01  1248   0.318E+00    0.292E-01
DAV:   8    -0.110235960118E+02    0.46741E-03   -0.10519E-02  1474   0.999E-01    0.967E-02
DAV:   9    -0.110235177822E+02    0.78230E-04   -0.41444E-04  1676   0.232E-01    0.325E-02
DAV:  10    -0.110234960819E+02    0.21700E-04   -0.69873E-05  1412   0.109E-01    0.105E-02
DAV:  11    -0.110234912918E+02    0.47901E-05   -0.68232E-06  1910   0.171E-02    0.138E-03
DAV:  12    -0.110234906774E+02    0.61438E-06   -0.89582E-07  1536   0.603E-03    0.154E-03
DAV:  13    -0.110234910390E+02   -0.36157E-06   -0.42810E-08  1268   0.177E-03    0.597E-04
DAV:  14    -0.110234913395E+02   -0.30056E-06   -0.57928E-09   716   0.815E-04    0.944E-05
DAV:  15    -0.110234912769E+02    0.62582E-07   -0.25929E-09   624   0.439E-04    0.169E-05
DAV:  16    -0.110234912757E+02    0.12865E-08   -0.90425E-10   614   0.301E-04
   1 F= -.11023491E+02 E0= -.11023491E+02  d E =-.114828E-08
