<?xml version="1.0" encoding="ISO-8859-1"?>
<modeling>
 <generator>
  <i name="program" type="string">vasp </i>
  <i name="version" type="string">5.4.4.18Apr17-6-g9f103f2a35  </i>
  <i name="subversion" type="string">(build Jun 23 2019 17:35:09) complex            parallel </i>
  <i name="platform" type="string">LinuxIFC </i>
  <i name="date" type="string">2020 01 15 </i>
  <i name="time" type="string">15:38:16 </i>
 </generator>
 <incar>
  <i type="int" name="ISTART">     0</i>
  <i type="string" name="PREC">acc</i>
  <i type="string" name="ALGO"> Normal</i>
  <i type="int" name="ISPIN">     1</i>
  <i type="int" name="NELM">   150</i>
  <i type="int" name="NELMIN">     5</i>
  <i type="int" name="IBRION">    -1</i>
  <i name="EDIFF">      0.00000001</i>
  <i type="int" name="NSW">     0</i>
  <i type="int" name="ISIF">     3</i>
  <i name="ENCUT">    520.00000000</i>
  <i type="logical" name="LREAL"> F  </i>
  <i type="logical" name="LPLANE"> T  </i>
  <i type="int" name="ISMEAR">     0</i>
  <i name="SIGMA">      0.05000000</i>
  <i type="logical" name="LWAVE"> F  </i>
  <i type="logical" name="LCHARG"> F  </i>
  <v type="int" name="KPOINT_BSE">    -1     0     0     0</v>
  <i type="int" name="NELM">   150</i>
  <i type="string" name="GGA"> PE</i>
 </incar>
 <structure name="primitive_cell" >
  <crystal>
   <varray name="basis" >
    <v>       0.00000000       3.49905606       3.49905606 </v>
    <v>       3.49905606       0.00000000       3.49905606 </v>
    <v>       3.49905606       3.49905606       0.00000000 </v>
   </varray>
   <i name="volume">     85.68063883 </i>
   <varray name="rec_basis" >
    <v>      -0.14289568       0.14289568       0.14289568 </v>
    <v>       0.14289568      -0.14289568       0.14289568 </v>
    <v>       0.14289568       0.14289568      -0.14289568 </v>
   </varray>
  </crystal>
  <varray name="positions" >
   <v>       0.25000015       0.25000015       0.25000015 </v>
   <v>       0.49999884       0.49999884       0.49999884 </v>
   <v>       0.00000000       0.00000000       0.00000000 </v>
   <v>      -0.24999956      -0.24999956      -0.24999956 </v>
  </varray>
 </structure>
 <varray name="primitive_index" >
  <v type="int" >        1 </v>
  <v type="int" >        3 </v>
  <v type="int" >        2 </v>
  <v type="int" >        4 </v>
 </varray>
 <kpoints>
  <generation param="Gamma">
   <v type="int" name="divisions">       8        8        8 </v>
   <v name="usershift">      0.00000000       0.00000000       0.00000000 </v>
   <v name="genvec1">      0.12500000       0.00000000       0.00000000 </v>
   <v name="genvec2">      0.00000000       0.12500000       0.00000000 </v>
   <v name="genvec3">      0.00000000       0.00000000       0.12500000 </v>
   <v name="shift">      0.00000000       0.00000000       0.00000000 </v>
  </generation>
  <varray name="kpointlist" >
   <v>       0.00000000       0.00000000       0.00000000 </v>
   <v>       0.12500000       0.00000000       0.00000000 </v>
   <v>       0.25000000       0.00000000       0.00000000 </v>
   <v>       0.37500000       0.00000000       0.00000000 </v>
   <v>       0.50000000       0.00000000       0.00000000 </v>
   <v>       0.12500000       0.12500000       0.00000000 </v>
   <v>       0.25000000       0.12500000       0.00000000 </v>
   <v>       0.37500000       0.12500000       0.00000000 </v>
   <v>       0.50000000       0.12500000       0.00000000 </v>
   <v>      -0.37500000       0.12500000       0.00000000 </v>
   <v>      -0.25000000       0.12500000       0.00000000 </v>
   <v>      -0.12500000       0.12500000       0.00000000 </v>
   <v>       0.25000000       0.25000000       0.00000000 </v>
   <v>       0.37500000       0.25000000       0.00000000 </v>
   <v>       0.50000000       0.25000000       0.00000000 </v>
   <v>      -0.37500000       0.25000000       0.00000000 </v>
   <v>      -0.25000000       0.25000000       0.00000000 </v>
   <v>       0.37500000       0.37500000       0.00000000 </v>
   <v>       0.50000000       0.37500000       0.00000000 </v>
   <v>      -0.37500000       0.37500000       0.00000000 </v>
   <v>       0.50000000       0.50000000       0.00000000 </v>
   <v>       0.37500000       0.25000000       0.12500000 </v>
   <v>       0.50000000       0.25000000       0.12500000 </v>
   <v>      -0.37500000       0.25000000       0.12500000 </v>
   <v>       0.50000000       0.37500000       0.12500000 </v>
   <v>      -0.37500000       0.37500000       0.12500000 </v>
   <v>      -0.25000000       0.37500000       0.12500000 </v>
   <v>      -0.37500000       0.50000000       0.12500000 </v>
   <v>      -0.25000000       0.50000000       0.25000000 </v>
  </varray>
  <varray name="weights" >
   <v>       0.00195312 </v>
   <v>       0.01562500 </v>
   <v>       0.01562500 </v>
   <v>       0.01562500 </v>
   <v>       0.00781250 </v>
   <v>       0.01171875 </v>
   <v>       0.04687500 </v>
   <v>       0.04687500 </v>
   <v>       0.04687500 </v>
   <v>       0.04687500 </v>
   <v>       0.04687500 </v>
   <v>       0.02343750 </v>
   <v>       0.01171875 </v>
   <v>       0.04687500 </v>
   <v>       0.04687500 </v>
   <v>       0.04687500 </v>
   <v>       0.02343750 </v>
   <v>       0.01171875 </v>
   <v>       0.04687500 </v>
   <v>       0.02343750 </v>
   <v>       0.00585938 </v>
   <v>       0.04687500 </v>
   <v>       0.09375000 </v>
   <v>       0.04687500 </v>
   <v>       0.04687500 </v>
   <v>       0.09375000 </v>
   <v>       0.04687500 </v>
   <v>       0.02343750 </v>
   <v>       0.01171875 </v>
  </varray>
 </kpoints>
 <parameters>
  <separator name="general" >
   <i type="string" name="SYSTEM">unknown system</i>
   <i type="logical" name="LCOMPAT"> F  </i>
  </separator>
  <separator name="electronic" >
   <i type="string" name="PREC">acc</i>
   <i name="ENMAX">    520.00000000</i>
   <i name="ENAUG">    628.94500000</i>
   <i name="EDIFF">      0.00000001</i>
   <i type="int" name="IALGO">    38</i>
   <i type="int" name="IWAVPR">    10</i>
   <i type="int" name="NBANDS">    18</i>
   <i name="NELECT">     28.00000000</i>
   <i type="int" name="TURBO">     0</i>
   <i type="int" name="IRESTART">     0</i>
   <i type="int" name="NREBOOT">     0</i>
   <i type="int" name="NMIN">     0</i>
   <i name="EREF">      0.00000000</i>
   <separator name="electronic smearing" >
    <i type="int" name="ISMEAR">     0</i>
    <i name="SIGMA">      0.05000000</i>
    <i name="KSPACING">      0.50000000</i>
    <i type="logical" name="KGAMMA"> T  </i>
   </separator>
   <separator name="electronic projectors" >
    <i type="logical" name="LREAL"> F  </i>
    <v name="ROPT">      0.00000000      0.00000000      0.00000000</v>
    <i type="int" name="LMAXPAW">  -100</i>
    <i type="int" name="LMAXMIX">     2</i>
    <i type="logical" name="NLSPLINE"> F  </i>
   </separator>
   <separator name="electronic startup" >
    <i type="int" name="ISTART">     0</i>
    <i type="int" name="ICHARG">     2</i>
    <i type="int" name="INIWAV">     1</i>
   </separator>
   <separator name="electronic spin" >
    <i type="int" name="ISPIN">     1</i>
    <i type="logical" name="LNONCOLLINEAR"> F  </i>
    <v name="MAGMOM">      1.00000000      1.00000000      1.00000000      1.00000000</v>
    <i name="NUPDOWN">     -1.00000000</i>
    <i type="logical" name="LSORBIT"> F  </i>
    <v name="SAXIS">      0.00000000      0.00000000      1.00000000</v>
    <i type="logical" name="LSPIRAL"> F  </i>
    <v name="QSPIRAL">      0.00000000      0.00000000      0.00000000</v>
    <i type="logical" name="LZEROZ"> F  </i>
   </separator>
   <separator name="electronic exchange-correlation" >
    <i type="logical" name="LASPH"> F  </i>
    <i type="logical" name="LMETAGGA"> F  </i>
   </separator>
   <separator name="electronic convergence" >
    <i type="int" name="NELM">   150</i>
    <i type="int" name="NELMDL">    -5</i>
    <i type="int" name="NELMIN">     5</i>
    <i name="ENINI">    520.00000000</i>
    <separator name="electronic convergence detail" >
     <i type="logical" name="LDIAG"> T  </i>
     <i type="logical" name="LSUBROT"> F  </i>
     <i name="WEIMIN">      0.00000000</i>
     <i name="EBREAK">      0.00000000</i>
     <i name="DEPER">      0.30000000</i>
     <i type="int" name="NRMM">     4</i>
     <i name="TIME">      0.40000000</i>
    </separator>
   </separator>
   <separator name="electronic mixer" >
    <i name="AMIX">      0.40000000</i>
    <i name="BMIX">      1.00000000</i>
    <i name="AMIN">      0.10000000</i>
    <i name="AMIX_MAG">      1.60000000</i>
    <i name="BMIX_MAG">      1.00000000</i>
    <separator name="electronic mixer details" >
     <i type="int" name="IMIX">     4</i>
     <i type="logical" name="MIXFIRST"> F  </i>
     <i type="int" name="MAXMIX">   -45</i>
     <i name="WC">    100.00000000</i>
     <i type="int" name="INIMIX">     1</i>
     <i type="int" name="MIXPRE">     1</i>
     <i type="int" name="MREMOVE">     5</i>
    </separator>
   </separator>
   <separator name="electronic dipolcorrection" >
    <i type="logical" name="LDIPOL"> F  </i>
    <i type="logical" name="LMONO"> F  </i>
    <i type="int" name="IDIPOL">     0</i>
    <i name="EPSILON">      1.00000000</i>
    <v name="DIPOL">   -100.00000000   -100.00000000   -100.00000000</v>
    <i name="EFIELD">      0.00000000</i>
   </separator>
  </separator>
  <separator name="grids" >
   <i type="int" name="NGX">    40</i>
   <i type="int" name="NGY">    40</i>
   <i type="int" name="NGZ">    40</i>
   <i type="int" name="NGXF">    80</i>
   <i type="int" name="NGYF">    80</i>
   <i type="int" name="NGZF">    80</i>
   <i type="logical" name="ADDGRID"> F  </i>
  </separator>
  <separator name="ionic" >
   <i type="int" name="NSW">     0</i>
   <i type="int" name="IBRION">    -1</i>
   <i type="int" name="MDALGO">     0</i>
   <i type="int" name="ISIF">     3</i>
   <i name="PSTRESS">      0.00000000</i>
   <i name="EDIFFG">      0.00000010</i>
   <i type="int" name="NFREE">     0</i>
   <i name="POTIM">      0.50000000</i>
   <i name="SMASS">     -3.00000000</i>
   <i name="SCALEE">      1.00000000</i>
  </separator>
  <separator name="ionic md" >
   <i name="TEBEG">      0.00010000</i>
   <i name="TEEND">      0.00010000</i>
   <i type="int" name="NBLOCK">     1</i>
   <i type="int" name="KBLOCK">     1</i>
   <i type="int" name="NPACO">   256</i>
   <i name="APACO">     16.00000000</i>
  </separator>
  <separator name="symmetry" >
   <i type="int" name="ISYM">     2</i>
   <i name="SYMPREC">      0.00001000</i>
  </separator>
  <separator name="dos" >
   <i type="int" name="LORBIT">     0</i>
   <v name="RWIGS">     -1.00000000     -1.00000000     -1.00000000</v>
   <i type="int" name="NEDOS">   301</i>
   <i name="EMIN">     10.00000000</i>
   <i name="EMAX">    -10.00000000</i>
   <i name="EFERMI">      0.00000000</i>
  </separator>
  <separator name="writing" >
   <i type="int" name="NWRITE">     2</i>
   <i type="logical" name="LWAVE"> F  </i>
   <i type="logical" name="LDOWNSAMPLE"> F  </i>
   <i type="logical" name="LCHARG"> F  </i>
   <i type="logical" name="LPARD"> F  </i>
   <i type="logical" name="LVTOT"> F  </i>
   <i type="logical" name="LVHAR"> F  </i>
   <i type="logical" name="LELF"> F  </i>
   <i type="logical" name="LOPTICS"> F  </i>
   <v name="STM">      0.00000000      0.00000000      0.00000000      0.00000000      0.00000000      0.00000000      0.00000000</v>
  </separator>
  <separator name="performance" >
   <i type="int" name="NPAR">     1</i>
   <i type="int" name="NSIM">     4</i>
   <i type="int" name="NBLK">    -1</i>
   <i type="logical" name="LPLANE"> T  </i>
   <i type="logical" name="LSCALAPACK"> T  </i>
   <i type="logical" name="LSCAAWARE"> F  </i>
   <i type="logical" name="LSCALU"> F  </i>
   <i type="logical" name="LASYNC"> F  </i>
   <i type="logical" name="LORBITALREAL"> F  </i>
  </separator>
  <separator name="miscellaneous" >
   <i type="int" name="IDIOT">     3</i>
   <i type="int" name="ISPECIAL">     0</i>
   <i type="logical" name="LMUSIC"> F  </i>
   <v name="POMASS">    208.98000000      7.01000000     22.99000000</v>
   <v name="DARWINR">      0.00000000      0.00000000      0.00000000</v>
   <v name="DARWINV">      1.00000000      1.00000000      1.00000000</v>
   <i type="logical" name="LCORR"> T  </i>
  </separator>
  <i type="logical" name="GGA_COMPAT"> T  </i>
  <i type="logical" name="LBERRY"> F  </i>
  <i type="int" name="ICORELEVEL">     0</i>
  <i type="logical" name="LDAU"> F  </i>
  <i type="int" name="I_CONSTRAINED_M">     0</i>
  <separator name="electronic exchange-correlation" >
   <i type="string" name="GGA">PE</i>
   <i type="int" name="VOSKOWN">     0</i>
   <i type="logical" name="LHFCALC"> F  </i>
   <i type="string" name="PRECFOCK"></i>
   <i type="logical" name="LSYMGRAD"> F  </i>
   <i type="logical" name="LHFONE"> F  </i>
   <i type="logical" name="LRHFCALC"> F  </i>
   <i type="logical" name="LTHOMAS"> F  </i>
   <i type="logical" name="LMODELHF"> F  </i>
   <i name="ENCUT4O">     -1.00000000</i>
   <i type="int" name="EXXOEP">     0</i>
   <i type="int" name="FOURORBIT">     0</i>
   <i name="AEXX">      0.00000000</i>
   <i name="HFALPHA">      0.00000000</i>
   <i name="MCALPHA">      0.00000000</i>
   <i name="ALDAX">      1.00000000</i>
   <i name="AGGAX">      1.00000000</i>
   <i name="ALDAC">      1.00000000</i>
   <i name="AGGAC">      1.00000000</i>
   <i type="int" name="NKREDX">     1</i>
   <i type="int" name="NKREDY">     1</i>
   <i type="int" name="NKREDZ">     1</i>
   <i type="logical" name="SHIFTRED"> F  </i>
   <i type="logical" name="ODDONLY"> F  </i>
   <i type="logical" name="EVENONLY"> F  </i>
   <i type="int" name="LMAXFOCK">     0</i>
   <i type="int" name="NMAXFOCKAE">     0</i>
   <i type="logical" name="LFOCKAEDFT"> F  </i>
   <i name="HFSCREEN">      0.00000000</i>
   <i name="HFSCREENC">      0.00000000</i>
   <i type="int" name="NBANDSGWLOW">     0</i>
  </separator>
  <separator name="vdW DFT" >
   <i type="logical" name="LUSE_VDW"> F  </i>
   <i name="Zab_VDW">     -0.84910000</i>
   <i name="PARAM1">      0.12340000</i>
   <i name="PARAM2">      1.00000000</i>
   <i name="PARAM3">      0.00000000</i>
  </separator>
  <separator name="model GW" >
   <i type="int" name="MODEL_GW">     0</i>
   <i name="MODEL_EPS0">     12.85209582</i>
   <i name="MODEL_ALPHA">      1.00000000</i>
  </separator>
  <separator name="linear response parameters" >
   <i type="logical" name="LEPSILON"> F  </i>
   <i type="logical" name="LRPA"> F  </i>
   <i type="logical" name="LNABLA"> F  </i>
   <i type="logical" name="LVEL"> F  </i>
   <i type="int" name="KINTER">     0</i>
   <i name="CSHIFT">      0.10000000</i>
   <i name="OMEGAMAX">     -1.00000000</i>
   <i name="DEG_THRESHOLD">      0.00200000</i>
   <i name="RTIME">     -0.10000000</i>
   <i name="WPLASMAI">      0.00000000</i>
   <v name="DFIELD">      0.00000000      0.00000000      0.00000000</v>
   <v name="WPLASMA">      0.00000000      0.00000000      0.00000000      0.00000000      0.00000000      0.00000000      0.00000000      0.00000000      0.00000000</v>
  </separator>
  <separator name="orbital magnetization" >
   <i type="logical" name="NUCIND"> F  </i>
   <v name="MAGPOS">      0.00000000      0.00000000      0.00000000</v>
   <i type="logical" name="LNICSALL"> T  </i>
   <i type="logical" name="ORBITALMAG"> F  </i>
   <i type="logical" name="LMAGBLOCH"> F  </i>
   <i type="logical" name="LCHIMAG"> F  </i>
   <i type="logical" name="LGAUGE"> T  </i>
   <i type="int" name="MAGATOM">     0</i>
   <v name="MAGDIPOL">      0.00000000      0.00000000      0.00000000</v>
   <v name="AVECCONST">      0.00000000      0.00000000      0.00000000</v>
  </separator>
  <separator name="response functions" >
   <i type="logical" name="LADDER"> F  </i>
   <i type="logical" name="LRPAFORCE"> F  </i>
   <i type="logical" name="LFXC"> F  </i>
   <i type="logical" name="LHARTREE"> T  </i>
   <i type="int" name="IBSE">     0</i>
   <v type="int" name="KPOINT">    -1     0     0     0</v>
   <i type="logical" name="LTCTE"> F  </i>
   <i type="logical" name="LTETE"> F  </i>
   <i type="logical" name="LTRIPLET"> F  </i>
   <i type="logical" name="LFXCEPS"> F  </i>
   <i type="logical" name="LFXHEG"> F  </i>
   <i type="int" name="NATURALO">     2</i>
   <i type="logical" name="L2ORDER"> F  </i>
   <i type="logical" name="LMP2LT"> F  </i>
   <i type="logical" name="LUSEW"> F  </i>
   <i name="ENCUTGW">     -2.00000000</i>
   <i name="ENCUTGWSOFT">     -2.00000000</i>
   <i name="ENCUTLF">     -1.00000000</i>
   <i type="int" name="LMAXMP2">    -1</i>
   <i name="SCISSOR">      0.00000000</i>
   <i type="int" name="NOMEGA">     0</i>
   <i type="int" name="NOMEGAR">     0</i>
   <i type="int" name="NBANDSGW">    -1</i>
   <i type="int" name="NBANDSO">    -1</i>
   <i type="int" name="NBANDSV">    -1</i>
   <i type="int" name="NELM">   150</i>
   <i type="int" name="NELMHF">     1</i>
   <i type="int" name="DIM">     3</i>
   <i type="int" name="ANTIRES">     0</i>
   <i name="OMEGAMAX">    -30.00000000</i>
   <i name="OMEGAMIN">    -30.00000000</i>
   <i name="OMEGATL">   -200.00000000</i>
   <i type="int" name="OMEGAGRID">   140</i>
   <i name="CSHIFT">     -0.10000000</i>
   <i type="logical" name="SELFENERGY"> F  </i>
   <i type="logical" name="LSPECTRAL"> F  </i>
   <i type="logical" name="LSPECTRALGW"> F  </i>
   <i type="logical" name="LSINGLES"> F  </i>
   <i type="logical" name="LFERMIGW"> F  </i>
   <i type="logical" name="ODDONLYGW"> F  </i>
   <i type="logical" name="EVENONLYGW"> F  </i>
   <i type="int" name="NKREDLFX">     1</i>
   <i type="int" name="NKREDLFY">     1</i>
   <i type="int" name="NKREDLFZ">     1</i>
   <i type="int" name="MAXMEM">  2800</i>
   <i type="int" name="TELESCOPE">     0</i>
   <i type="int" name="TAUPAR">     1</i>
   <i type="int" name="OMEGAPAR">    -1</i>
   <i name="LAMBDA">      1.00000000</i>
  </separator>
  <separator name="External order field" >
   <i name="OFIELD_KAPPA">      0.00000000</i>
   <v name="OFIELD_K">      0.00000000      0.00000000      0.00000000</v>
   <i name="OFIELD_Q6_NEAR">      0.00000000</i>
   <i name="OFIELD_Q6_FAR">      0.00000000</i>
   <i name="OFIELD_A">      0.00000000</i>
  </separator>
 </parameters>
 <atominfo>
  <atoms>       4 </atoms>
  <types>       3 </types>
  <array name="atoms" >
   <dimension dim="1">ion</dimension>
   <field type="string">element</field>
   <field type="int">atomtype</field>
   <set>
    <rc><c>Bi</c><c>   1</c></rc>
    <rc><c>Li</c><c>   2</c></rc>
    <rc><c>Li</c><c>   2</c></rc>
    <rc><c>Na</c><c>   3</c></rc>
   </set>
  </array>
  <array name="atomtypes" >
   <dimension dim="1">type</dimension>
   <field type="int">atomspertype</field>
   <field type="string">element</field>
   <field>mass</field>
   <field>valence</field>
   <field type="string">pseudopotential</field>
   <set>
    <rc><c>   1</c><c>Bi</c><c>    208.98000000</c><c>     15.00000000</c><c>  PAW_PBE Bi_d 06Sep2000                </c></rc>
    <rc><c>   2</c><c>Li</c><c>      7.01000000</c><c>      3.00000000</c><c>  PAW_PBE Li_sv 10Sep2004               </c></rc>
    <rc><c>   1</c><c>Na</c><c>     22.99000000</c><c>      7.00000000</c><c>  PAW_PBE Na_pv 19Sep2006               </c></rc>
   </set>
  </array>
 </atominfo>
 <structure name="initialpos" >
  <crystal>
   <varray name="basis" >
    <v>       0.00000000       3.49905606       3.49905606 </v>
    <v>       3.49905606       0.00000000       3.49905606 </v>
    <v>       3.49905606       3.49905606       0.00000000 </v>
   </varray>
   <i name="volume">     85.68063883 </i>
   <varray name="rec_basis" >
    <v>      -0.14289568       0.14289568       0.14289568 </v>
    <v>       0.14289568      -0.14289568       0.14289568 </v>
    <v>       0.14289568       0.14289568      -0.14289568 </v>
   </varray>
  </crystal>
  <varray name="positions" >
   <v>       0.25000015       0.25000015       0.25000015 </v>
   <v>       0.00000000       0.00000000       0.00000000 </v>
   <v>       0.49999884       0.49999884       0.49999884 </v>
   <v>       0.75000044       0.75000044       0.75000044 </v>
  </varray>
 </structure>
 <calculation>
  <scstep>
   <time name="dav">    0.18    0.18</time>
   <time name="total">    0.23    0.23</time>
   <energy>
    <i name="alphaZ">     56.58729684 </i>
    <i name="ewald">  -1850.82033200 </i>
    <i name="hartreedc">   -880.85419655 </i>
    <i name="XCdc">     98.44323494 </i>
    <i name="pawpsdc">   2337.22285842 </i>
    <i name="pawaedc">  -2427.02081637 </i>
    <i name="eentropy">     -0.00227550 </i>
    <i name="bandstr">   -233.35877576 </i>
    <i name="atom">   3130.78817564 </i>
    <i name="e_fr_energy">    230.98516966 </i>
    <i name="e_wo_entrp">    230.98744516 </i>
    <i name="e_0_energy">    230.98630741 </i>
   </energy>
  </scstep>
  <scstep>
   <time name="dav">    0.16    0.16</time>
   <time name="total">    0.16    0.16</time>
   <energy>
    <i name="e_fr_energy">      9.83684307 </i>
    <i name="e_wo_entrp">      9.84032517 </i>
    <i name="e_0_energy">      9.83858412 </i>
   </energy>
  </scstep>
  <scstep>
   <time name="dav">    0.23    0.23</time>
   <time name="total">    0.23    0.23</time>
   <energy>
    <i name="e_fr_energy">     -9.62645113 </i>
    <i name="e_wo_entrp">     -9.62645113 </i>
    <i name="e_0_energy">     -9.62645113 </i>
   </energy>
  </scstep>
  <scstep>
   <time name="dav">    0.23    0.23</time>
   <time name="total">    0.23    0.23</time>
   <energy>
    <i name="e_fr_energy">    -11.06868379 </i>
    <i name="e_wo_entrp">    -11.06868379 </i>
    <i name="e_0_energy">    -11.06868379 </i>
   </energy>
  </scstep>
  <scstep>
   <time name="dav">    0.21    0.21</time>
   <time name="total">    0.23    0.23</time>
   <energy>
    <i name="e_fr_energy">    -11.19814661 </i>
    <i name="e_wo_entrp">    -11.19814661 </i>
    <i name="e_0_energy">    -11.19814661 </i>
   </energy>
  </scstep>
  <scstep>
   <time name="dav">    0.21    0.21</time>
   <time name="total">    0.28    0.28</time>
   <energy>
    <i name="e_fr_energy">    -11.07628938 </i>
    <i name="e_wo_entrp">    -11.07628938 </i>
    <i name="e_0_energy">    -11.07628938 </i>
   </energy>
  </scstep>
  <scstep>
   <time name="dav">    0.19    0.19</time>
   <time name="total">    0.27    0.27</time>
   <energy>
    <i name="e_fr_energy">    -11.02406342 </i>
    <i name="e_wo_entrp">    -11.02406342 </i>
    <i name="e_0_energy">    -11.02406342 </i>
   </energy>
  </scstep>
  <scstep>
   <time name="dav">    0.22    0.22</time>
   <time name="total">    0.29    0.29</time>
   <energy>
    <i name="e_fr_energy">    -11.02359601 </i>
    <i name="e_wo_entrp">    -11.02359601 </i>
    <i name="e_0_energy">    -11.02359601 </i>
   </energy>
  </scstep>
  <scstep>
   <time name="dav">    0.24    0.24</time>
   <time name="total">    0.31    0.31</time>
   <energy>
    <i name="e_fr_energy">    -11.02351778 </i>
    <i name="e_wo_entrp">    -11.02351778 </i>
    <i name="e_0_energy">    -11.02351778 </i>
   </energy>
  </scstep>
  <scstep>
   <time name="dav">    0.21    0.21</time>
   <time name="total">    0.28    0.28</time>
   <energy>
    <i name="e_fr_energy">    -11.02349608 </i>
    <i name="e_wo_entrp">    -11.02349608 </i>
    <i name="e_0_energy">    -11.02349608 </i>
   </energy>
  </scstep>
  <scstep>
   <time name="dav">    0.27    0.27</time>
   <time name="total">    0.34    0.34</time>
   <energy>
    <i name="e_fr_energy">    -11.02349129 </i>
    <i name="e_wo_entrp">    -11.02349129 </i>
    <i name="e_0_energy">    -11.02349129 </i>
   </energy>
  </scstep>
  <scstep>
   <time name="dav">    0.21    0.22</time>
   <time name="total">    0.29    0.29</time>
   <energy>
    <i name="e_fr_energy">    -11.02349068 </i>
    <i name="e_wo_entrp">    -11.02349068 </i>
    <i name="e_0_energy">    -11.02349068 </i>
   </energy>
  </scstep>
  <scstep>
   <time name="dav">    0.19    0.19</time>
   <time name="total">    0.27    0.27</time>
   <energy>
    <i name="e_fr_energy">    -11.02349104 </i>
    <i name="e_wo_entrp">    -11.02349104 </i>
    <i name="e_0_energy">    -11.02349104 </i>
   </energy>
  </scstep>
  <scstep>
   <time name="dav">    0.13    0.13</time>
   <time name="total">    0.21    0.21</time>
   <energy>
    <i name="e_fr_energy">    -11.02349134 </i>
    <i name="e_wo_entrp">    -11.02349134 </i>
    <i name="e_0_energy">    -11.02349134 </i>
   </energy>
  </scstep>
  <scstep>
   <time name="dav">    0.12    0.12</time>
   <time name="total">    0.20    0.20</time>
   <energy>
    <i name="e_fr_energy">    -11.02349128 </i>
    <i name="e_wo_entrp">    -11.02349128 </i>
    <i name="e_0_energy">    -11.02349128 </i>
   </energy>
  </scstep>
  <scstep>
   <time name="dav">    0.12    0.12</time>
   <time name="total">    0.17    0.17</time>
   <energy>
    <i name="alphaZ">     56.58729684 </i>
    <i name="ewald">  -1850.82033200 </i>
    <i name="hartreedc">   -871.62060231 </i>
    <i name="XCdc">     98.11133725 </i>
    <i name="pawpsdc">   2475.53139502 </i>
    <i name="pawaedc">  -2568.88652235 </i>
    <i name="eentropy">     -0.00000000 </i>
    <i name="bandstr">   -480.71423936 </i>
    <i name="atom">   3130.78817564 </i>
    <i name="e_fr_energy">    -11.02349128 </i>
    <i name="e_wo_entrp">    -11.02349127 </i>
    <i name="e_0_energy">    -11.02349128 </i>
   </energy>
  </scstep>
  <structure>
   <crystal>
    <varray name="basis" >
     <v>       0.00000000       3.49905606       3.49905606 </v>
     <v>       3.49905606       0.00000000       3.49905606 </v>
     <v>       3.49905606       3.49905606       0.00000000 </v>
    </varray>
    <i name="volume">     85.68063883 </i>
    <varray name="rec_basis" >
     <v>      -0.14289568       0.14289568       0.14289568 </v>
     <v>       0.14289568      -0.14289568       0.14289568 </v>
     <v>       0.14289568       0.14289568      -0.14289568 </v>
    </varray>
   </crystal>
   <varray name="positions" >
    <v>       0.25000015       0.25000015       0.25000015 </v>
    <v>       0.00000000       0.00000000       0.00000000 </v>
    <v>       0.49999884       0.49999884       0.49999884 </v>
    <v>       0.75000044       0.75000044       0.75000044 </v>
   </varray>
  </structure>
  <varray name="forces" >
   <v>      -0.00000000      -0.00000000       0.00000000 </v>
   <v>      -0.00000000      -0.00000000      -0.00000000 </v>
   <v>       0.00000000       0.00000000       0.00000000 </v>
   <v>       0.00000000       0.00000000       0.00000000 </v>
  </varray>
  <varray name="stress" >
   <v>       0.30364029      -0.00000000       0.00000000 </v>
   <v>       0.00000000       0.30364029       0.00000000 </v>
   <v>      -0.00000000      -0.00000000       0.30364029 </v>
  </varray>
  <energy>
   <i name="e_fr_energy">    -11.02349128 </i>
   <i name="e_wo_entrp">    -11.02349128 </i>
   <i name="e_0_energy">     -0.00000000 </i>
  </energy>
  <time name="totalsc">    4.27    4.29</time>
  <eigenvalues>
   <array>
    <dimension dim="1">band</dimension>
    <dimension dim="2">kpoint</dimension>
    <dimension dim="3">spin</dimension>
    <field>eigene</field>
    <field>occ</field>
    <set>
     <set comment="spin 1">
      <set comment="kpoint 1">
       <r>  -43.0359    1.0000 </r>
       <r>  -43.0319    1.0000 </r>
       <r>  -20.9224    1.0000 </r>
       <r>  -20.9224    1.0000 </r>
       <r>  -20.9224    1.0000 </r>
       <r>  -18.0928    1.0000 </r>
       <r>  -18.0928    1.0000 </r>
       <r>  -18.0928    1.0000 </r>
       <r>  -18.0820    1.0000 </r>
       <r>  -18.0820    1.0000 </r>
       <r>   -6.7582    1.0000 </r>
       <r>    3.6416    1.0000 </r>
       <r>    3.6417    1.0000 </r>
       <r>    3.6417    1.0000 </r>
       <r>    4.0678    0.0000 </r>
       <r>    6.2212    0.0000 </r>
       <r>    6.2213    0.0000 </r>
       <r>    6.2213    0.0000 </r>
      </set>
      <set comment="kpoint 2">
       <r>  -43.0357    1.0000 </r>
       <r>  -43.0321    1.0000 </r>
       <r>  -20.9227    1.0000 </r>
       <r>  -20.9226    1.0000 </r>
       <r>  -20.9226    1.0000 </r>
       <r>  -18.0924    1.0000 </r>
       <r>  -18.0924    1.0000 </r>
       <r>  -18.0924    1.0000 </r>
       <r>  -18.0819    1.0000 </r>
       <r>  -18.0819    1.0000 </r>
       <r>   -6.7069    1.0000 </r>
       <r>    2.4413    1.0000 </r>
       <r>    3.4899    1.0000 </r>
       <r>    3.4900    1.0000 </r>
       <r>    4.8325    0.0000 </r>
       <r>    6.4664    0.0000 </r>
       <r>    6.4664    0.0000 </r>
       <r>    6.8328    0.0000 </r>
      </set>
      <set comment="kpoint 3">
       <r>  -43.0353    1.0000 </r>
       <r>  -43.0325    1.0000 </r>
       <r>  -20.9235    1.0000 </r>
       <r>  -20.9229    1.0000 </r>
       <r>  -20.9229    1.0000 </r>
       <r>  -18.0916    1.0000 </r>
       <r>  -18.0915    1.0000 </r>
       <r>  -18.0915    1.0000 </r>
       <r>  -18.0814    1.0000 </r>
       <r>  -18.0814    1.0000 </r>
       <r>   -6.5750    1.0000 </r>
       <r>    1.2082    1.0000 </r>
       <r>    3.2068    1.0000 </r>
       <r>    3.2068    1.0000 </r>
       <r>    5.1374    0.0000 </r>
       <r>    6.6815    0.0000 </r>
       <r>    6.6815    0.0000 </r>
       <r>    8.0365    0.0000 </r>
      </set>
      <set comment="kpoint 4">
       <r>  -43.0347    1.0000 </r>
       <r>  -43.0332    1.0000 </r>
       <r>  -20.9242    1.0000 </r>
       <r>  -20.9232    1.0000 </r>
       <r>  -20.9232    1.0000 </r>
       <r>  -18.0907    1.0000 </r>
       <r>  -18.0907    1.0000 </r>
       <r>  -18.0907    1.0000 </r>
       <r>  -18.0808    1.0000 </r>
       <r>  -18.0808    1.0000 </r>
       <r>   -6.4297    1.0000 </r>
       <r>    0.3659    1.0000 </r>
       <r>    2.9895    1.0000 </r>
       <r>    2.9895    1.0000 </r>
       <r>    5.2491    0.0000 </r>
       <r>    6.4799    0.0000 </r>
       <r>    6.4799    0.0000 </r>
       <r>    8.5169    0.0000 </r>
      </set>
      <set comment="kpoint 5">
       <r>  -43.0339    1.0000 </r>
       <r>  -43.0339    1.0000 </r>
       <r>  -20.9245    1.0000 </r>
       <r>  -20.9233    1.0000 </r>
       <r>  -20.9233    1.0000 </r>
       <r>  -18.0904    1.0000 </r>
       <r>  -18.0904    1.0000 </r>
       <r>  -18.0903    1.0000 </r>
       <r>  -18.0805    1.0000 </r>
       <r>  -18.0805    1.0000 </r>
       <r>   -6.3647    1.0000 </r>
       <r>    0.0641    1.0000 </r>
       <r>    2.9116    1.0000 </r>
       <r>    2.9116    1.0000 </r>
       <r>    5.2825    0.0000 </r>
       <r>    6.3638    0.0000 </r>
       <r>    6.3638    0.0000 </r>
       <r>    8.5648    0.0000 </r>
      </set>
      <set comment="kpoint 6">
       <r>  -43.0357    1.0000 </r>
       <r>  -43.0322    1.0000 </r>
       <r>  -20.9229    1.0000 </r>
       <r>  -20.9226    1.0000 </r>
       <r>  -20.9226    1.0000 </r>
       <r>  -18.0928    1.0000 </r>
       <r>  -18.0920    1.0000 </r>
       <r>  -18.0920    1.0000 </r>
       <r>  -18.0819    1.0000 </r>
       <r>  -18.0817    1.0000 </r>
       <r>   -6.6902    1.0000 </r>
       <r>    2.4931    1.0000 </r>
       <r>    3.1868    1.0000 </r>
       <r>    3.1868    1.0000 </r>
       <r>    5.2860    0.0000 </r>
       <r>    6.1855    0.0000 </r>
       <r>    6.8957    0.0000 </r>
       <r>    6.8957    0.0000 </r>
      </set>
      <set comment="kpoint 7">
       <r>  -43.0353    1.0000 </r>
       <r>  -43.0325    1.0000 </r>
       <r>  -20.9234    1.0000 </r>
       <r>  -20.9228    1.0000 </r>
       <r>  -20.9228    1.0000 </r>
       <r>  -18.0924    1.0000 </r>
       <r>  -18.0911    1.0000 </r>
       <r>  -18.0911    1.0000 </r>
       <r>  -18.0818    1.0000 </r>
       <r>  -18.0813    1.0000 </r>
       <r>   -6.5861    1.0000 </r>
       <r>    1.5430    1.0000 </r>
       <r>    2.8607    1.0000 </r>
       <r>    2.9775    1.0000 </r>
       <r>    5.5384    0.0000 </r>
       <r>    6.3957    0.0000 </r>
       <r>    7.1161    0.0000 </r>
       <r>    7.3292    0.0000 </r>
      </set>
      <set comment="kpoint 8">
       <r>  -43.0348    1.0000 </r>
       <r>  -43.0330    1.0000 </r>
       <r>  -20.9240    1.0000 </r>
       <r>  -20.9232    1.0000 </r>
       <r>  -20.9231    1.0000 </r>
       <r>  -18.0916    1.0000 </r>
       <r>  -18.0903    1.0000 </r>
       <r>  -18.0902    1.0000 </r>
       <r>  -18.0814    1.0000 </r>
       <r>  -18.0807    1.0000 </r>
       <r>   -6.4447    1.0000 </r>
       <r>    0.6554    1.0000 </r>
       <r>    2.6773    1.0000 </r>
       <r>    2.6962    1.0000 </r>
       <r>    5.5542    0.0000 </r>
       <r>    6.4899    0.0000 </r>
       <r>    7.1608    0.0000 </r>
       <r>    7.6483    0.0000 </r>
      </set>
      <set comment="kpoint 9">
       <r>  -43.0342    1.0000 </r>
       <r>  -43.0337    1.0000 </r>
       <r>  -20.9244    1.0000 </r>
       <r>  -20.9234    1.0000 </r>
       <r>  -20.9233    1.0000 </r>
       <r>  -18.0907    1.0000 </r>
       <r>  -18.0899    1.0000 </r>
       <r>  -18.0899    1.0000 </r>
       <r>  -18.0810    1.0000 </r>
       <r>  -18.0804    1.0000 </r>
       <r>   -6.3505    1.0000 </r>
       <r>    0.2005    1.0000 </r>
       <r>    2.4348    1.0000 </r>
       <r>    2.6858    1.0000 </r>
       <r>    5.5853    0.0000 </r>
       <r>    6.4366    0.0000 </r>
       <r>    6.8493    0.0000 </r>
       <r>    8.7947    0.0000 </r>
      </set>
      <set comment="kpoint 10">
       <r>  -43.0344    1.0000 </r>
       <r>  -43.0335    1.0000 </r>
       <r>  -20.9243    1.0000 </r>
       <r>  -20.9233    1.0000 </r>
       <r>  -20.9233    1.0000 </r>
       <r>  -18.0904    1.0000 </r>
       <r>  -18.0903    1.0000 </r>
       <r>  -18.0902    1.0000 </r>
       <r>  -18.0809    1.0000 </r>
       <r>  -18.0807    1.0000 </r>
       <r>   -6.3717    1.0000 </r>
       <r>    0.2926    1.0000 </r>
       <r>    2.3194    1.0000 </r>
       <r>    2.8795    1.0000 </r>
       <r>    5.6376    0.0000 </r>
       <r>    6.5312    0.0000 </r>
       <r>    6.7207    0.0000 </r>
       <r>    8.9304    0.0000 </r>
      </set>
      <set comment="kpoint 11">
       <r>  -43.0350    1.0000 </r>
       <r>  -43.0329    1.0000 </r>
       <r>  -20.9238    1.0000 </r>
       <r>  -20.9231    1.0000 </r>
       <r>  -20.9230    1.0000 </r>
       <r>  -18.0912    1.0000 </r>
       <r>  -18.0910    1.0000 </r>
       <r>  -18.0907    1.0000 </r>
       <r>  -18.0812    1.0000 </r>
       <r>  -18.0811    1.0000 </r>
       <r>   -6.4919    1.0000 </r>
       <r>    0.8931    1.0000 </r>
       <r>    2.4178    1.0000 </r>
       <r>    3.1992    1.0000 </r>
       <r>    5.5815    0.0000 </r>
       <r>    6.7779    0.0000 </r>
       <r>    6.8433    0.0000 </r>
       <r>    7.9463    0.0000 </r>
      </set>
      <set comment="kpoint 12">
       <r>  -43.0355    1.0000 </r>
       <r>  -43.0324    1.0000 </r>
       <r>  -20.9232    1.0000 </r>
       <r>  -20.9228    1.0000 </r>
       <r>  -20.9227    1.0000 </r>
       <r>  -18.0921    1.0000 </r>
       <r>  -18.0920    1.0000 </r>
       <r>  -18.0915    1.0000 </r>
       <r>  -18.0817    1.0000 </r>
       <r>  -18.0815    1.0000 </r>
       <r>   -6.6289    1.0000 </r>
       <r>    1.7693    1.0000 </r>
       <r>    2.8173    1.0000 </r>
       <r>    3.4901    1.0000 </r>
       <r>    5.3005    0.0000 </r>
       <r>    6.5738    0.0000 </r>
       <r>    7.0839    0.0000 </r>
       <r>    7.1585    0.0000 </r>
      </set>
      <set comment="kpoint 13">
       <r>  -43.0352    1.0000 </r>
       <r>  -43.0326    1.0000 </r>
       <r>  -20.9237    1.0000 </r>
       <r>  -20.9228    1.0000 </r>
       <r>  -20.9228    1.0000 </r>
       <r>  -18.0929    1.0000 </r>
       <r>  -18.0901    1.0000 </r>
       <r>  -18.0901    1.0000 </r>
       <r>  -18.0823    1.0000 </r>
       <r>  -18.0810    1.0000 </r>
       <r>   -6.5197    1.0000 </r>
       <r>    1.4910    1.0000 </r>
       <r>    2.4881    1.0000 </r>
       <r>    2.4882    1.0000 </r>
       <r>    5.2454    0.0000 </r>
       <r>    6.1068    0.0000 </r>
       <r>    8.1564    0.0000 </r>
       <r>    8.1578    0.0000 </r>
      </set>
      <set comment="kpoint 14">
       <r>  -43.0349    1.0000 </r>
       <r>  -43.0330    1.0000 </r>
       <r>  -20.9239    1.0000 </r>
       <r>  -20.9231    1.0000 </r>
       <r>  -20.9231    1.0000 </r>
       <r>  -18.0925    1.0000 </r>
       <r>  -18.0892    1.0000 </r>
       <r>  -18.0892    1.0000 </r>
       <r>  -18.0825    1.0000 </r>
       <r>  -18.0805    1.0000 </r>
       <r>   -6.4082    1.0000 </r>
       <r>    0.9567    1.0000 </r>
       <r>    2.1603    1.0000 </r>
       <r>    2.2719    1.0000 </r>
       <r>    5.0265    0.0000 </r>
       <r>    6.3765    0.0000 </r>
       <r>    7.9504    0.0000 </r>
       <r>    8.3607    0.0000 </r>
      </set>
      <set comment="kpoint 15">
       <r>  -43.0344    1.0000 </r>
       <r>  -43.0335    1.0000 </r>
       <r>  -20.9241    1.0000 </r>
       <r>  -20.9235    1.0000 </r>
       <r>  -20.9233    1.0000 </r>
       <r>  -18.0916    1.0000 </r>
       <r>  -18.0889    1.0000 </r>
       <r>  -18.0888    1.0000 </r>
       <r>  -18.0822    1.0000 </r>
       <r>  -18.0803    1.0000 </r>
       <r>   -6.3150    1.0000 </r>
       <r>    0.5545    1.0000 </r>
       <r>    1.7403    1.0000 </r>
       <r>    2.2694    1.0000 </r>
       <r>    5.1563    0.0000 </r>
       <r>    7.2445    0.0000 </r>
       <r>    7.8041    0.0000 </r>
       <r>    8.0306    0.0000 </r>
      </set>
      <set comment="kpoint 16">
       <r>  -43.0340    1.0000 </r>
       <r>  -43.0338    1.0000 </r>
       <r>  -20.9241    1.0000 </r>
       <r>  -20.9235    1.0000 </r>
       <r>  -20.9234    1.0000 </r>
       <r>  -18.0908    1.0000 </r>
       <r>  -18.0893    1.0000 </r>
       <r>  -18.0892    1.0000 </r>
       <r>  -18.0817    1.0000 </r>
       <r>  -18.0805    1.0000 </r>
       <r>   -6.3020    1.0000 </r>
       <r>    0.4913    1.0000 </r>
       <r>    1.4929    1.0000 </r>
       <r>    2.4805    1.0000 </r>
       <r>    5.4272    0.0000 </r>
       <r>    7.4195    0.0000 </r>
       <r>    7.7597    0.0000 </r>
       <r>    8.8416    0.0000 </r>
      </set>
      <set comment="kpoint 17">
       <r>  -43.0346    1.0000 </r>
       <r>  -43.0332    1.0000 </r>
       <r>  -20.9241    1.0000 </r>
       <r>  -20.9233    1.0000 </r>
       <r>  -20.9233    1.0000 </r>
       <r>  -18.0904    1.0000 </r>
       <r>  -18.0902    1.0000 </r>
       <r>  -18.0900    1.0000 </r>
       <r>  -18.0813    1.0000 </r>
       <r>  -18.0809    1.0000 </r>
       <r>   -6.3785    1.0000 </r>
       <r>    0.6637    1.0000 </r>
       <r>    1.6856    1.0000 </r>
       <r>    2.8490    1.0000 </r>
       <r>    5.7226    0.0000 </r>
       <r>    7.0835    0.0000 </r>
       <r>    7.6302    0.0000 </r>
       <r>    7.7724    0.0000 </r>
      </set>
      <set comment="kpoint 18">
       <r>  -43.0347    1.0000 </r>
       <r>  -43.0331    1.0000 </r>
       <r>  -20.9240    1.0000 </r>
       <r>  -20.9231    1.0000 </r>
       <r>  -20.9231    1.0000 </r>
       <r>  -18.0929    1.0000 </r>
       <r>  -18.0882    1.0000 </r>
       <r>  -18.0882    1.0000 </r>
       <r>  -18.0832    1.0000 </r>
       <r>  -18.0802    1.0000 </r>
       <r>   -6.3392    1.0000 </r>
       <r>    0.8856    1.0000 </r>
       <r>    2.0039    1.0000 </r>
       <r>    2.0039    1.0000 </r>
       <r>    4.3549    0.0000 </r>
       <r>    6.0369    0.0000 </r>
       <r>    9.4566    0.0000 </r>
       <r>    9.4566    0.0000 </r>
      </set>
      <set comment="kpoint 19">
       <r>  -43.0345    1.0000 </r>
       <r>  -43.0333    1.0000 </r>
       <r>  -20.9240    1.0000 </r>
       <r>  -20.9234    1.0000 </r>
       <r>  -20.9233    1.0000 </r>
       <r>  -18.0926    1.0000 </r>
       <r>  -18.0879    1.0000 </r>
       <r>  -18.0878    1.0000 </r>
       <r>  -18.0834    1.0000 </r>
       <r>  -18.0800    1.0000 </r>
       <r>   -6.2773    1.0000 </r>
       <r>    0.7600    1.0000 </r>
       <r>    1.5841    1.0000 </r>
       <r>    1.9504    1.0000 </r>
       <r>    4.4479    0.0000 </r>
       <r>    6.3166    0.0000 </r>
       <r>    9.3408    0.0000 </r>
       <r>    9.5329    0.0000 </r>
      </set>
      <set comment="kpoint 20">
       <r>  -43.0342    1.0000 </r>
       <r>  -43.0336    1.0000 </r>
       <r>  -20.9238    1.0000 </r>
       <r>  -20.9238    1.0000 </r>
       <r>  -20.9234    1.0000 </r>
       <r>  -18.0916    1.0000 </r>
       <r>  -18.0883    1.0000 </r>
       <r>  -18.0882    1.0000 </r>
       <r>  -18.0828    1.0000 </r>
       <r>  -18.0802    1.0000 </r>
       <r>   -6.2618    1.0000 </r>
       <r>    0.9403    1.0000 </r>
       <r>    0.9589    1.0000 </r>
       <r>    2.1227    1.0000 </r>
       <r>    4.9355    0.0000 </r>
       <r>    7.2543    0.0000 </r>
       <r>    8.6863    0.0000 </r>
       <r>    9.1325    0.0000 </r>
      </set>
      <set comment="kpoint 21">
       <r>  -43.0345    1.0000 </r>
       <r>  -43.0332    1.0000 </r>
       <r>  -20.9240    1.0000 </r>
       <r>  -20.9232    1.0000 </r>
       <r>  -20.9232    1.0000 </r>
       <r>  -18.0930    1.0000 </r>
       <r>  -18.0874    1.0000 </r>
       <r>  -18.0874    1.0000 </r>
       <r>  -18.0838    1.0000 </r>
       <r>  -18.0799    1.0000 </r>
       <r>   -6.2611    1.0000 </r>
       <r>    0.6870    1.0000 </r>
       <r>    1.8359    1.0000 </r>
       <r>    1.8359    1.0000 </r>
       <r>    3.9962    0.0000 </r>
       <r>    6.0107    0.0000 </r>
       <r>   10.5619    0.0000 </r>
       <r>   10.5619    0.0000 </r>
      </set>
      <set comment="kpoint 22">
       <r>  -43.0350    1.0000 </r>
       <r>  -43.0328    1.0000 </r>
       <r>  -20.9238    1.0000 </r>
       <r>  -20.9230    1.0000 </r>
       <r>  -20.9230    1.0000 </r>
       <r>  -18.0921    1.0000 </r>
       <r>  -18.0902    1.0000 </r>
       <r>  -18.0901    1.0000 </r>
       <r>  -18.0818    1.0000 </r>
       <r>  -18.0809    1.0000 </r>
       <r>   -6.4774    1.0000 </r>
       <r>    1.0708    1.0000 </r>
       <r>    2.2015    1.0000 </r>
       <r>    2.8244    1.0000 </r>
       <r>    5.6802    0.0000 </r>
       <r>    6.6355    0.0000 </r>
       <r>    6.8504    0.0000 </r>
       <r>    8.2110    0.0000 </r>
      </set>
      <set comment="kpoint 23">
       <r>  -43.0345    1.0000 </r>
       <r>  -43.0333    1.0000 </r>
       <r>  -20.9241    1.0000 </r>
       <r>  -20.9233    1.0000 </r>
       <r>  -20.9232    1.0000 </r>
       <r>  -18.0912    1.0000 </r>
       <r>  -18.0899    1.0000 </r>
       <r>  -18.0892    1.0000 </r>
       <r>  -18.0817    1.0000 </r>
       <r>  -18.0805    1.0000 </r>
       <r>   -6.3601    1.0000 </r>
       <r>    0.5813    1.0000 </r>
       <r>    1.8799    1.0000 </r>
       <r>    2.5149    1.0000 </r>
       <r>    5.8647    0.0000 </r>
       <r>    6.4874    0.0000 </r>
       <r>    7.4265    0.0000 </r>
       <r>    8.1929    0.0000 </r>
      </set>
      <set comment="kpoint 24">
       <r>  -43.0339    1.0000 </r>
       <r>  -43.0339    1.0000 </r>
       <r>  -20.9242    1.0000 </r>
       <r>  -20.9235    1.0000 </r>
       <r>  -20.9234    1.0000 </r>
       <r>  -18.0903    1.0000 </r>
       <r>  -18.0903    1.0000 </r>
       <r>  -18.0889    1.0000 </r>
       <r>  -18.0816    1.0000 </r>
       <r>  -18.0804    1.0000 </r>
       <r>   -6.3086    1.0000 </r>
       <r>    0.3745    1.0000 </r>
       <r>    1.8208    1.0000 </r>
       <r>    2.3501    1.0000 </r>
       <r>    5.9914    0.0000 </r>
       <r>    6.2742    0.0000 </r>
       <r>    7.8886    0.0000 </r>
       <r>    8.9713    0.0000 </r>
      </set>
      <set comment="kpoint 25">
       <r>  -43.0345    1.0000 </r>
       <r>  -43.0333    1.0000 </r>
       <r>  -20.9240    1.0000 </r>
       <r>  -20.9233    1.0000 </r>
       <r>  -20.9232    1.0000 </r>
       <r>  -18.0921    1.0000 </r>
       <r>  -18.0889    1.0000 </r>
       <r>  -18.0882    1.0000 </r>
       <r>  -18.0827    1.0000 </r>
       <r>  -18.0802    1.0000 </r>
       <r>   -6.3213    1.0000 </r>
       <r>    0.7889    1.0000 </r>
       <r>    1.7573    1.0000 </r>
       <r>    1.9759    1.0000 </r>
       <r>    5.0731    0.0000 </r>
       <r>    6.5717    0.0000 </r>
       <r>    7.7792    0.0000 </r>
       <r>    9.5806    0.0000 </r>
      </set>
      <set comment="kpoint 26">
       <r>  -43.0341    1.0000 </r>
       <r>  -43.0336    1.0000 </r>
       <r>  -20.9239    1.0000 </r>
       <r>  -20.9236    1.0000 </r>
       <r>  -20.9234    1.0000 </r>
       <r>  -18.0912    1.0000 </r>
       <r>  -18.0892    1.0000 </r>
       <r>  -18.0878    1.0000 </r>
       <r>  -18.0826    1.0000 </r>
       <r>  -18.0802    1.0000 </r>
       <r>   -6.2689    1.0000 </r>
       <r>    0.7582    1.0000 </r>
       <r>    1.3325    1.0000 </r>
       <r>    1.8600    1.0000 </r>
       <r>    5.5320    0.0000 </r>
       <r>    7.2847    0.0000 </r>
       <r>    7.4470    0.0000 </r>
       <r>    9.0351    0.0000 </r>
      </set>
      <set comment="kpoint 27">
       <r>  -43.0341    1.0000 </r>
       <r>  -43.0337    1.0000 </r>
       <r>  -20.9240    1.0000 </r>
       <r>  -20.9235    1.0000 </r>
       <r>  -20.9234    1.0000 </r>
       <r>  -18.0903    1.0000 </r>
       <r>  -18.0902    1.0000 </r>
       <r>  -18.0882    1.0000 </r>
       <r>  -18.0822    1.0000 </r>
       <r>  -18.0804    1.0000 </r>
       <r>   -6.2858    1.0000 </r>
       <r>    0.7035    1.0000 </r>
       <r>    1.2965    1.0000 </r>
       <r>    2.1131    1.0000 </r>
       <r>    5.9772    0.0000 </r>
       <r>    6.7400    0.0000 </r>
       <r>    7.8743    0.0000 </r>
       <r>    8.7934    0.0000 </r>
      </set>
      <set comment="kpoint 28">
       <r>  -43.0343    1.0000 </r>
       <r>  -43.0334    1.0000 </r>
       <r>  -20.9239    1.0000 </r>
       <r>  -20.9235    1.0000 </r>
       <r>  -20.9234    1.0000 </r>
       <r>  -18.0922    1.0000 </r>
       <r>  -18.0882    1.0000 </r>
       <r>  -18.0874    1.0000 </r>
       <r>  -18.0833    1.0000 </r>
       <r>  -18.0800    1.0000 </r>
       <r>   -6.2554    1.0000 </r>
       <r>    0.8119    1.0000 </r>
       <r>    1.5398    1.0000 </r>
       <r>    1.6012    1.0000 </r>
       <r>    4.8016    0.0000 </r>
       <r>    6.5427    0.0000 </r>
       <r>    8.6954    0.0000 </r>
       <r>    9.6446    0.0000 </r>
      </set>
      <set comment="kpoint 29">
       <r>  -43.0339    1.0000 </r>
       <r>  -43.0339    1.0000 </r>
       <r>  -20.9237    1.0000 </r>
       <r>  -20.9237    1.0000 </r>
       <r>  -20.9237    1.0000 </r>
       <r>  -18.0902    1.0000 </r>
       <r>  -18.0902    1.0000 </r>
       <r>  -18.0875    1.0000 </r>
       <r>  -18.0828    1.0000 </r>
       <r>  -18.0802    1.0000 </r>
       <r>   -6.2496    1.0000 </r>
       <r>    1.1575    1.0000 </r>
       <r>    1.1575    1.0000 </r>
       <r>    1.3231    1.0000 </r>
       <r>    6.4386    0.0000 </r>
       <r>    6.6255    0.0000 </r>
       <r>    7.8709    0.0000 </r>
       <r>    7.8709    0.0000 </r>
      </set>
     </set>
    </set>
   </array>
  </eigenvalues>
  <separator name="orbital magnetization" >
   <v name="MAGDIPOLOUT">      0.00000000      0.00000000      0.00000000</v>
  </separator>
  <dos>
   <i name="efermi">      3.81900137 </i>
   <total>
    <array>
     <dimension dim="1">gridpoints</dimension>
     <dimension dim="2">spin</dimension>
     <field>energy</field>
     <field>total</field>
     <field>integrated</field>
     <set>
      <set comment="spin 1">
       <r>   -45.7158     0.0000     0.0000 </r>
       <r>   -45.5193     0.0000     0.0000 </r>
       <r>   -45.3228     0.0000     0.0000 </r>
       <r>   -45.1262     0.0000     0.0000 </r>
       <r>   -44.9297     0.0000     0.0000 </r>
       <r>   -44.7332     0.0000     0.0000 </r>
       <r>   -44.5367     0.0000     0.0000 </r>
       <r>   -44.3401     0.0000     0.0000 </r>
       <r>   -44.1436     0.0000     0.0000 </r>
       <r>   -43.9471     0.0000     0.0000 </r>
       <r>   -43.7506     0.0000     0.0000 </r>
       <r>   -43.5540     0.0000     0.0000 </r>
       <r>   -43.3575     0.0000     0.0000 </r>
       <r>   -43.1610     0.0033     0.0007 </r>
       <r>   -42.9645    19.8459     3.9009 </r>
       <r>   -42.7679     0.5044     4.0000 </r>
       <r>   -42.5714     0.0000     4.0000 </r>
       <r>   -42.3749     0.0000     4.0000 </r>
       <r>   -42.1784     0.0000     4.0000 </r>
       <r>   -41.9818     0.0000     4.0000 </r>
       <r>   -41.7853     0.0000     4.0000 </r>
       <r>   -41.5888     0.0000     4.0000 </r>
       <r>   -41.3923     0.0000     4.0000 </r>
       <r>   -41.1957     0.0000     4.0000 </r>
       <r>   -40.9992     0.0000     4.0000 </r>
       <r>   -40.8027     0.0000     4.0000 </r>
       <r>   -40.6062     0.0000     4.0000 </r>
       <r>   -40.4096     0.0000     4.0000 </r>
       <r>   -40.2131     0.0000     4.0000 </r>
       <r>   -40.0166     0.0000     4.0000 </r>
       <r>   -39.8201     0.0000     4.0000 </r>
       <r>   -39.6235     0.0000     4.0000 </r>
       <r>   -39.4270     0.0000     4.0000 </r>
       <r>   -39.2305     0.0000     4.0000 </r>
       <r>   -39.0340     0.0000     4.0000 </r>
       <r>   -38.8374     0.0000     4.0000 </r>
       <r>   -38.6409     0.0000     4.0000 </r>
       <r>   -38.4444     0.0000     4.0000 </r>
       <r>   -38.2479     0.0000     4.0000 </r>
       <r>   -38.0513     0.0000     4.0000 </r>
       <r>   -37.8548     0.0000     4.0000 </r>
       <r>   -37.6583     0.0000     4.0000 </r>
       <r>   -37.4618     0.0000     4.0000 </r>
       <r>   -37.2652     0.0000     4.0000 </r>
       <r>   -37.0687     0.0000     4.0000 </r>
       <r>   -36.8722     0.0000     4.0000 </r>
       <r>   -36.6757     0.0000     4.0000 </r>
       <r>   -36.4791     0.0000     4.0000 </r>
       <r>   -36.2826     0.0000     4.0000 </r>
       <r>   -36.0861     0.0000     4.0000 </r>
       <r>   -35.8896     0.0000     4.0000 </r>
       <r>   -35.6930     0.0000     4.0000 </r>
       <r>   -35.4965     0.0000     4.0000 </r>
       <r>   -35.3000     0.0000     4.0000 </r>
       <r>   -35.1035     0.0000     4.0000 </r>
       <r>   -34.9069     0.0000     4.0000 </r>
       <r>   -34.7104     0.0000     4.0000 </r>
       <r>   -34.5139     0.0000     4.0000 </r>
       <r>   -34.3174     0.0000     4.0000 </r>
       <r>   -34.1208     0.0000     4.0000 </r>
       <r>   -33.9243     0.0000     4.0000 </r>
       <r>   -33.7278     0.0000     4.0000 </r>
       <r>   -33.5313     0.0000     4.0000 </r>
       <r>   -33.3347     0.0000     4.0000 </r>
       <r>   -33.1382     0.0000     4.0000 </r>
       <r>   -32.9417     0.0000     4.0000 </r>
       <r>   -32.7451     0.0000     4.0000 </r>
       <r>   -32.5486     0.0000     4.0000 </r>
       <r>   -32.3521     0.0000     4.0000 </r>
       <r>   -32.1556     0.0000     4.0000 </r>
       <r>   -31.9590     0.0000     4.0000 </r>
       <r>   -31.7625     0.0000     4.0000 </r>
       <r>   -31.5660     0.0000     4.0000 </r>
       <r>   -31.3695     0.0000     4.0000 </r>
       <r>   -31.1729     0.0000     4.0000 </r>
       <r>   -30.9764     0.0000     4.0000 </r>
       <r>   -30.7799     0.0000     4.0000 </r>
       <r>   -30.5834     0.0000     4.0000 </r>
       <r>   -30.3868     0.0000     4.0000 </r>
       <r>   -30.1903     0.0000     4.0000 </r>
       <r>   -29.9938     0.0000     4.0000 </r>
       <r>   -29.7973     0.0000     4.0000 </r>
       <r>   -29.6007     0.0000     4.0000 </r>
       <r>   -29.4042     0.0000     4.0000 </r>
       <r>   -29.2077     0.0000     4.0000 </r>
       <r>   -29.0112     0.0000     4.0000 </r>
       <r>   -28.8146     0.0000     4.0000 </r>
       <r>   -28.6181     0.0000     4.0000 </r>
       <r>   -28.4216     0.0000     4.0000 </r>
       <r>   -28.2251     0.0000     4.0000 </r>
       <r>   -28.0285     0.0000     4.0000 </r>
       <r>   -27.8320     0.0000     4.0000 </r>
       <r>   -27.6355     0.0000     4.0000 </r>
       <r>   -27.4390     0.0000     4.0000 </r>
       <r>   -27.2424     0.0000     4.0000 </r>
       <r>   -27.0459     0.0000     4.0000 </r>
       <r>   -26.8494     0.0000     4.0000 </r>
       <r>   -26.6529     0.0000     4.0000 </r>
       <r>   -26.4563     0.0000     4.0000 </r>
       <r>   -26.2598     0.0000     4.0000 </r>
       <r>   -26.0633     0.0000     4.0000 </r>
       <r>   -25.8668     0.0000     4.0000 </r>
       <r>   -25.6702     0.0000     4.0000 </r>
       <r>   -25.4737     0.0000     4.0000 </r>
       <r>   -25.2772     0.0000     4.0000 </r>
       <r>   -25.0807     0.0000     4.0000 </r>
       <r>   -24.8841     0.0000     4.0000 </r>
       <r>   -24.6876     0.0000     4.0000 </r>
       <r>   -24.4911     0.0000     4.0000 </r>
       <r>   -24.2946     0.0000     4.0000 </r>
       <r>   -24.0980     0.0000     4.0000 </r>
       <r>   -23.9015     0.0000     4.0000 </r>
       <r>   -23.7050     0.0000     4.0000 </r>
       <r>   -23.5085     0.0000     4.0000 </r>
       <r>   -23.3119     0.0000     4.0000 </r>
       <r>   -23.1154     0.0000     4.0000 </r>
       <r>   -22.9189     0.0000     4.0000 </r>
       <r>   -22.7224     0.0000     4.0000 </r>
       <r>   -22.5258     0.0000     4.0000 </r>
       <r>   -22.3293     0.0000     4.0000 </r>
       <r>   -22.1328     0.0000     4.0000 </r>
       <r>   -21.9363     0.0000     4.0000 </r>
       <r>   -21.7397     0.0000     4.0000 </r>
       <r>   -21.5432     0.0000     4.0000 </r>
       <r>   -21.3467     0.0000     4.0000 </r>
       <r>   -21.1502     0.0000     4.0000 </r>
       <r>   -20.9536     6.0080     5.1807 </r>
       <r>   -20.7571    24.5223    10.0000 </r>
       <r>   -20.5606     0.0000    10.0000 </r>
       <r>   -20.3641     0.0000    10.0000 </r>
       <r>   -20.1675     0.0000    10.0000 </r>
       <r>   -19.9710     0.0000    10.0000 </r>
       <r>   -19.7745     0.0000    10.0000 </r>
       <r>   -19.5780     0.0000    10.0000 </r>
       <r>   -19.3814     0.0000    10.0000 </r>
       <r>   -19.1849     0.0000    10.0000 </r>
       <r>   -18.9884     0.0000    10.0000 </r>
       <r>   -18.7919     0.0000    10.0000 </r>
       <r>   -18.5953     0.0000    10.0000 </r>
       <r>   -18.3988     0.0000    10.0000 </r>
       <r>   -18.2023     0.0298    10.0059 </r>
       <r>   -18.0058    50.2618    19.8836 </r>
       <r>   -17.8092     0.5925    20.0000 </r>
       <r>   -17.6127     0.0000    20.0000 </r>
       <r>   -17.4162     0.0000    20.0000 </r>
       <r>   -17.2197     0.0000    20.0000 </r>
       <r>   -17.0231     0.0000    20.0000 </r>
       <r>   -16.8266     0.0000    20.0000 </r>
       <r>   -16.6301     0.0000    20.0000 </r>
       <r>   -16.4336     0.0000    20.0000 </r>
       <r>   -16.2370     0.0000    20.0000 </r>
       <r>   -16.0405     0.0000    20.0000 </r>
       <r>   -15.8440     0.0000    20.0000 </r>
       <r>   -15.6475     0.0000    20.0000 </r>
       <r>   -15.4509     0.0000    20.0000 </r>
       <r>   -15.2544     0.0000    20.0000 </r>
       <r>   -15.0579     0.0000    20.0000 </r>
       <r>   -14.8614     0.0000    20.0000 </r>
       <r>   -14.6648     0.0000    20.0000 </r>
       <r>   -14.4683     0.0000    20.0000 </r>
       <r>   -14.2718     0.0000    20.0000 </r>
       <r>   -14.0753     0.0000    20.0000 </r>
       <r>   -13.8787     0.0000    20.0000 </r>
       <r>   -13.6822     0.0000    20.0000 </r>
       <r>   -13.4857     0.0000    20.0000 </r>
       <r>   -13.2892     0.0000    20.0000 </r>
       <r>   -13.0926     0.0000    20.0000 </r>
       <r>   -12.8961     0.0000    20.0000 </r>
       <r>   -12.6996     0.0000    20.0000 </r>
       <r>   -12.5031     0.0000    20.0000 </r>
       <r>   -12.3065     0.0000    20.0000 </r>
       <r>   -12.1100     0.0000    20.0000 </r>
       <r>   -11.9135     0.0000    20.0000 </r>
       <r>   -11.7170     0.0000    20.0000 </r>
       <r>   -11.5204     0.0000    20.0000 </r>
       <r>   -11.3239     0.0000    20.0000 </r>
       <r>   -11.1274     0.0000    20.0000 </r>
       <r>   -10.9308     0.0000    20.0000 </r>
       <r>   -10.7343     0.0000    20.0000 </r>
       <r>   -10.5378     0.0000    20.0000 </r>
       <r>   -10.3413     0.0000    20.0000 </r>
       <r>   -10.1447     0.0000    20.0000 </r>
       <r>    -9.9482     0.0000    20.0000 </r>
       <r>    -9.7517     0.0000    20.0000 </r>
       <r>    -9.5552     0.0000    20.0000 </r>
       <r>    -9.3586     0.0000    20.0000 </r>
       <r>    -9.1621     0.0000    20.0000 </r>
       <r>    -8.9656     0.0000    20.0000 </r>
       <r>    -8.7691     0.0000    20.0000 </r>
       <r>    -8.5725     0.0000    20.0000 </r>
       <r>    -8.3760     0.0000    20.0000 </r>
       <r>    -8.1795     0.0000    20.0000 </r>
       <r>    -7.9830     0.0000    20.0000 </r>
       <r>    -7.7864     0.0000    20.0000 </r>
       <r>    -7.5899     0.0000    20.0000 </r>
       <r>    -7.3934     0.0000    20.0000 </r>
       <r>    -7.1969     0.0000    20.0000 </r>
       <r>    -7.0003     0.0000    20.0000 </r>
       <r>    -6.8038     0.0025    20.0005 </r>
       <r>    -6.6073     0.6286    20.1240 </r>
       <r>    -6.4108     2.5456    20.6243 </r>
       <r>    -6.2142     6.8323    21.9670 </r>
       <r>    -6.0177     0.1677    22.0000 </r>
       <r>    -5.8212     0.0000    22.0000 </r>
       <r>    -5.6247     0.0000    22.0000 </r>
       <r>    -5.4281     0.0000    22.0000 </r>
       <r>    -5.2316     0.0000    22.0000 </r>
       <r>    -5.0351     0.0000    22.0000 </r>
       <r>    -4.8386     0.0000    22.0000 </r>
       <r>    -4.6420     0.0000    22.0000 </r>
       <r>    -4.4455     0.0000    22.0000 </r>
       <r>    -4.2490     0.0000    22.0000 </r>
       <r>    -4.0525     0.0000    22.0000 </r>
       <r>    -3.8559     0.0000    22.0000 </r>
       <r>    -3.6594     0.0000    22.0000 </r>
       <r>    -3.4629     0.0000    22.0000 </r>
       <r>    -3.2664     0.0000    22.0000 </r>
       <r>    -3.0698     0.0000    22.0000 </r>
       <r>    -2.8733     0.0000    22.0000 </r>
       <r>    -2.6768     0.0000    22.0000 </r>
       <r>    -2.4803     0.0000    22.0000 </r>
       <r>    -2.2837     0.0000    22.0000 </r>
       <r>    -2.0872     0.0000    22.0000 </r>
       <r>    -1.8907     0.0000    22.0000 </r>
       <r>    -1.6942     0.0000    22.0000 </r>
       <r>    -1.4976     0.0000    22.0000 </r>
       <r>    -1.3011     0.0000    22.0000 </r>
       <r>    -1.1046     0.0000    22.0000 </r>
       <r>    -0.9081     0.0000    22.0000 </r>
       <r>    -0.7115     0.0000    22.0000 </r>
       <r>    -0.5150     0.0000    22.0000 </r>
       <r>    -0.3185     0.0000    22.0000 </r>
       <r>    -0.1220     0.0000    22.0000 </r>
       <r>     0.0746     0.0491    22.0097 </r>
       <r>     0.2711     0.6276    22.1330 </r>
       <r>     0.4676     1.1146    22.3520 </r>
       <r>     0.6641     2.2665    22.7975 </r>
       <r>     0.8607     3.0053    23.3881 </r>
       <r>     1.0572     1.6298    23.7084 </r>
       <r>     1.2537     0.7616    23.8580 </r>
       <r>     1.4502     1.5698    24.1665 </r>
       <r>     1.6468     1.9474    24.5492 </r>
       <r>     1.8433     2.2990    25.0011 </r>
       <r>     2.0398     2.7919    25.5497 </r>
       <r>     2.2363     1.7930    25.9021 </r>
       <r>     2.4329     2.5064    26.3947 </r>
       <r>     2.6294     2.3071    26.8481 </r>
       <r>     2.8259     1.9093    27.2233 </r>
       <r>     3.0224     2.1979    27.6552 </r>
       <r>     3.2190     0.8413    27.8206 </r>
       <r>     3.4155     0.3065    27.8808 </r>
       <r>     3.6120     0.5586    27.9906 </r>
       <r>     3.8085     0.0478    28.0000 </r>
       <r>     4.0051     0.0365    28.0072 </r>
       <r>     4.2016     0.0430    28.0156 </r>
       <r>     4.3981     0.1440    28.0439 </r>
       <r>     4.5946     0.4523    28.1328 </r>
       <r>     4.7912     0.1108    28.1546 </r>
       <r>     4.9877     0.5771    28.2680 </r>
       <r>     5.1842     1.4315    28.5493 </r>
       <r>     5.3807     0.8639    28.7191 </r>
       <r>     5.5773     2.4939    29.2092 </r>
       <r>     5.7738     1.9816    29.5987 </r>
       <r>     5.9703     1.3117    29.8565 </r>
       <r>     6.1668     0.9439    30.0420 </r>
       <r>     6.3634     1.3977    30.3166 </r>
       <r>     6.5599     4.2536    31.1526 </r>
       <r>     6.7564     2.4291    31.6300 </r>
       <r>     6.9529     2.3850    32.0987 </r>
       <r>     7.1495     1.1472    32.3241 </r>
       <r>     7.3460     2.5129    32.8180 </r>
       <r>     7.5425     2.5545    33.3200 </r>
       <r>     7.7390     0.9656    33.5097 </r>
       <r>     7.9356     2.8869    34.0771 </r>
       <r>     8.1321     1.4196    34.3561 </r>
       <r>     8.3286     1.6537    34.6811 </r>
       <r>     8.5251     0.4951    34.7784 </r>
       <r>     8.7217     0.5381    34.8841 </r>
       <r>     8.9182     1.7032    35.2188 </r>
       <r>     9.1147     1.7706    35.5668 </r>
       <r>     9.3112     0.2730    35.6204 </r>
       <r>     9.5078     0.7250    35.7629 </r>
       <r>     9.7043     1.0761    35.9744 </r>
       <r>     9.9008     0.0110    35.9766 </r>
       <r>    10.0973     0.0000    35.9766 </r>
       <r>    10.2939     0.0000    35.9766 </r>
       <r>    10.4904     0.0026    35.9771 </r>
       <r>    10.6869     0.1167    36.0000 </r>
       <r>    10.8834     0.0000    36.0000 </r>
       <r>    11.0800     0.0000    36.0000 </r>
       <r>    11.2765     0.0000    36.0000 </r>
       <r>    11.4730     0.0000    36.0000 </r>
       <r>    11.6696     0.0000    36.0000 </r>
       <r>    11.8661     0.0000    36.0000 </r>
       <r>    12.0626     0.0000    36.0000 </r>
       <r>    12.2591     0.0000    36.0000 </r>
       <r>    12.4557     0.0000    36.0000 </r>
       <r>    12.6522     0.0000    36.0000 </r>
       <r>    12.8487     0.0000    36.0000 </r>
       <r>    13.0452     0.0000    36.0000 </r>
       <r>    13.2418     0.0000    36.0000 </r>
      </set>
     </set>
    </array>
   </total>
  </dos>
 </calculation>
 <structure name="finalpos" >
  <crystal>
   <varray name="basis" >
    <v>       0.00000000       3.49905606       3.49905606 </v>
    <v>       3.49905606       0.00000000       3.49905606 </v>
    <v>       3.49905606       3.49905606       0.00000000 </v>
   </varray>
   <i name="volume">     85.68063883 </i>
   <varray name="rec_basis" >
    <v>      -0.14289568       0.14289568       0.14289568 </v>
    <v>       0.14289568      -0.14289568       0.14289568 </v>
    <v>       0.14289568       0.14289568      -0.14289568 </v>
   </varray>
  </crystal>
  <varray name="positions" >
   <v>       0.25000015       0.25000015       0.25000015 </v>
   <v>       0.00000000       0.00000000       0.00000000 </v>
   <v>       0.49999884       0.49999884       0.49999884 </v>
   <v>       0.75000044       0.75000044       0.75000044 </v>
  </varray>
 </structure>
</modeling>
