unknown system                          
           1
     0.000000    3.499056    3.499056
     3.499056    0.000000    3.499056
     3.499056    3.499056    0.000000
   Bi   Li   Na
   1   2   1
Direct configuration=     1
   0.25000015  0.25000015  0.25000015
   0.00000000  0.00000000  0.00000000
   0.49999884  0.49999884  0.49999884
   0.75000044  0.75000044  0.75000044
