   4   4   0   0
  0.3156016E+02  0.5630817E-09  0.5630817E-09  0.5630817E-09  0.5000000E-15
  1.000000000000000E-004
  CAR 
 unknown system                          
      9.11936541    -30.84110818  301      2.17035810      1.00000000
    -30.841  0.0000E+00  0.0000E+00
    -30.708  0.0000E+00  0.0000E+00
    -30.575  0.0000E+00  0.0000E+00
    -30.442  0.0000E+00  0.0000E+00
    -30.308  0.0000E+00  0.0000E+00
    -30.175  0.0000E+00  0.0000E+00
    -30.042  0.0000E+00  0.0000E+00
    -29.909  0.0000E+00  0.0000E+00
    -29.775  0.0000E+00  0.0000E+00
    -29.642  0.0000E+00  0.0000E+00
    -29.509  0.0000E+00  0.0000E+00
    -29.376  0.0000E+00  0.0000E+00
    -29.243  0.5110E-08  0.6807E-09
    -29.109  0.1221E+00  0.1626E-01
    -28.976  0.1360E+02  0.1828E+01
    -28.843  0.1294E+01  0.2000E+01
    -28.710  0.2152E-05  0.2000E+01
    -28.577  0.0000E+00  0.2000E+01
    -28.443  0.0000E+00  0.2000E+01
    -28.310  0.0000E+00  0.2000E+01
    -28.177  0.0000E+00  0.2000E+01
    -28.044  0.0000E+00  0.2000E+01
    -27.911  0.0000E+00  0.2000E+01
    -27.777  0.0000E+00  0.2000E+01
    -27.644  0.0000E+00  0.2000E+01
    -27.511  0.0000E+00  0.2000E+01
    -27.378  0.0000E+00  0.2000E+01
    -27.245  0.0000E+00  0.2000E+01
    -27.111  0.0000E+00  0.2000E+01
    -26.978  0.0000E+00  0.2000E+01
    -26.845  0.0000E+00  0.2000E+01
    -26.712  0.0000E+00  0.2000E+01
    -26.579  0.0000E+00  0.2000E+01
    -26.445  0.0000E+00  0.2000E+01
    -26.312  0.0000E+00  0.2000E+01
    -26.179  0.0000E+00  0.2000E+01
    -26.046  0.0000E+00  0.2000E+01
    -25.913  0.0000E+00  0.2000E+01
    -25.779  0.0000E+00  0.2000E+01
    -25.646  0.0000E+00  0.2000E+01
    -25.513  0.0000E+00  0.2000E+01
    -25.380  0.0000E+00  0.2000E+01
    -25.247  0.0000E+00  0.2000E+01
    -25.113  0.0000E+00  0.2000E+01
    -24.980  0.0000E+00  0.2000E+01
    -24.847  0.0000E+00  0.2000E+01
    -24.714  0.0000E+00  0.2000E+01
    -24.581  0.0000E+00  0.2000E+01
    -24.447  0.0000E+00  0.2000E+01
    -24.314  0.0000E+00  0.2000E+01
    -24.181  0.0000E+00  0.2000E+01
    -24.048  0.0000E+00  0.2000E+01
    -23.915  0.0000E+00  0.2000E+01
    -23.781  0.0000E+00  0.2000E+01
    -23.648  0.0000E+00  0.2000E+01
    -23.515  0.0000E+00  0.2000E+01
    -23.382  0.0000E+00  0.2000E+01
    -23.249  0.0000E+00  0.2000E+01
    -23.115  0.0000E+00  0.2000E+01
    -22.982  0.0000E+00  0.2000E+01
    -22.849  0.0000E+00  0.2000E+01
    -22.716  0.0000E+00  0.2000E+01
    -22.583  0.0000E+00  0.2000E+01
    -22.449  0.3913E-06  0.2000E+01
    -22.316  0.2021E+01  0.2269E+01
    -22.183  0.8439E+02  0.1351E+02
    -22.050  0.3674E+01  0.1400E+02
    -21.917  0.1808E-05  0.1400E+02
    -21.783  0.0000E+00  0.1400E+02
    -21.650  0.0000E+00  0.1400E+02
    -21.517  0.0000E+00  0.1400E+02
    -21.384  0.0000E+00  0.1400E+02
    -21.251  0.0000E+00  0.1400E+02
    -21.117  0.0000E+00  0.1400E+02
    -20.984  0.0000E+00  0.1400E+02
    -20.851  0.0000E+00  0.1400E+02
    -20.718  0.0000E+00  0.1400E+02
    -20.585  0.0000E+00  0.1400E+02
    -20.451  0.0000E+00  0.1400E+02
    -20.318  0.0000E+00  0.1400E+02
    -20.185  0.0000E+00  0.1400E+02
    -20.052  0.0000E+00  0.1400E+02
    -19.919  0.0000E+00  0.1400E+02
    -19.785  0.0000E+00  0.1400E+02
    -19.652  0.0000E+00  0.1400E+02
    -19.519  0.0000E+00  0.1400E+02
    -19.386  0.5895E-10  0.1400E+02
    -19.253  0.3574E-01  0.1400E+02
    -19.119  0.5079E+02  0.2077E+02
    -18.986  0.2425E+02  0.2400E+02
    -18.853  0.9062E-03  0.2400E+02
    -18.720  0.0000E+00  0.2400E+02
    -18.587  0.0000E+00  0.2400E+02
    -18.453  0.0000E+00  0.2400E+02
    -18.320  0.0000E+00  0.2400E+02
    -18.187  0.0000E+00  0.2400E+02
    -18.054  0.0000E+00  0.2400E+02
    -17.921  0.0000E+00  0.2400E+02
    -17.787  0.0000E+00  0.2400E+02
    -17.654  0.0000E+00  0.2400E+02
    -17.521  0.0000E+00  0.2400E+02
    -17.388  0.0000E+00  0.2400E+02
    -17.255  0.0000E+00  0.2400E+02
    -17.121  0.0000E+00  0.2400E+02
    -16.988  0.0000E+00  0.2400E+02
    -16.855  0.0000E+00  0.2400E+02
    -16.722  0.0000E+00  0.2400E+02
    -16.589  0.0000E+00  0.2400E+02
    -16.455  0.0000E+00  0.2400E+02
    -16.322  0.0000E+00  0.2400E+02
    -16.189  0.0000E+00  0.2400E+02
    -16.056  0.0000E+00  0.2400E+02
    -15.923  0.0000E+00  0.2400E+02
    -15.789  0.0000E+00  0.2400E+02
    -15.656  0.0000E+00  0.2400E+02
    -15.523  0.0000E+00  0.2400E+02
    -15.390  0.0000E+00  0.2400E+02
    -15.257  0.0000E+00  0.2400E+02
    -15.123  0.0000E+00  0.2400E+02
    -14.990  0.0000E+00  0.2400E+02
    -14.857  0.0000E+00  0.2400E+02
    -14.724  0.0000E+00  0.2400E+02
    -14.591  0.0000E+00  0.2400E+02
    -14.457  0.0000E+00  0.2400E+02
    -14.324  0.0000E+00  0.2400E+02
    -14.191  0.0000E+00  0.2400E+02
    -14.058  0.0000E+00  0.2400E+02
    -13.925  0.0000E+00  0.2400E+02
    -13.791  0.0000E+00  0.2400E+02
    -13.658  0.0000E+00  0.2400E+02
    -13.525  0.0000E+00  0.2400E+02
    -13.392  0.0000E+00  0.2400E+02
    -13.258  0.0000E+00  0.2400E+02
    -13.125  0.0000E+00  0.2400E+02
    -12.992  0.0000E+00  0.2400E+02
    -12.859  0.0000E+00  0.2400E+02
    -12.726  0.1031E-04  0.2400E+02
    -12.592  0.4236E+01  0.2456E+02
    -12.459  0.4045E+02  0.2995E+02
    -12.326  0.3538E+00  0.3000E+02
    -12.193  0.1674E-07  0.3000E+02
    -12.060  0.0000E+00  0.3000E+02
    -11.926  0.0000E+00  0.3000E+02
    -11.793  0.0000E+00  0.3000E+02
    -11.660  0.0000E+00  0.3000E+02
    -11.527  0.0000E+00  0.3000E+02
    -11.394  0.0000E+00  0.3000E+02
    -11.260  0.0000E+00  0.3000E+02
    -11.127  0.0000E+00  0.3000E+02
    -10.994  0.0000E+00  0.3000E+02
    -10.861  0.0000E+00  0.3000E+02
    -10.728  0.0000E+00  0.3000E+02
    -10.594  0.0000E+00  0.3000E+02
    -10.461  0.0000E+00  0.3000E+02
    -10.328  0.0000E+00  0.3000E+02
    -10.195  0.0000E+00  0.3000E+02
    -10.062  0.0000E+00  0.3000E+02
     -9.928  0.0000E+00  0.3000E+02
     -9.795  0.0000E+00  0.3000E+02
     -9.662  0.0000E+00  0.3000E+02
     -9.529  0.0000E+00  0.3000E+02
     -9.396  0.0000E+00  0.3000E+02
     -9.262  0.0000E+00  0.3000E+02
     -9.129  0.0000E+00  0.3000E+02
     -8.996  0.0000E+00  0.3000E+02
     -8.863  0.0000E+00  0.3000E+02
     -8.730  0.0000E+00  0.3000E+02
     -8.596  0.0000E+00  0.3000E+02
     -8.463  0.0000E+00  0.3000E+02
     -8.330  0.0000E+00  0.3000E+02
     -8.197  0.0000E+00  0.3000E+02
     -8.064  0.0000E+00  0.3000E+02
     -7.930  0.0000E+00  0.3000E+02
     -7.797  0.0000E+00  0.3000E+02
     -7.664  0.0000E+00  0.3000E+02
     -7.531  0.2693E-07  0.3000E+02
     -7.398  0.1792E-01  0.3000E+02
     -7.264  0.1695E+01  0.3023E+02
     -7.131  0.1154E+02  0.3177E+02
     -6.998  0.1761E+01  0.3200E+02
     -6.865  0.2248E-04  0.3200E+02
     -6.732  0.0000E+00  0.3200E+02
     -6.598  0.0000E+00  0.3200E+02
     -6.465  0.0000E+00  0.3200E+02
     -6.332  0.0000E+00  0.3200E+02
     -6.199  0.0000E+00  0.3200E+02
     -6.066  0.0000E+00  0.3200E+02
     -5.932  0.0000E+00  0.3200E+02
     -5.799  0.0000E+00  0.3200E+02
     -5.666  0.0000E+00  0.3200E+02
     -5.533  0.0000E+00  0.3200E+02
     -5.400  0.0000E+00  0.3200E+02
     -5.266  0.0000E+00  0.3200E+02
     -5.133  0.0000E+00  0.3200E+02
     -5.000  0.0000E+00  0.3200E+02
     -4.867  0.0000E+00  0.3200E+02
     -4.734  0.0000E+00  0.3200E+02
     -4.600  0.0000E+00  0.3200E+02
     -4.467  0.0000E+00  0.3200E+02
     -4.334  0.0000E+00  0.3200E+02
     -4.201  0.0000E+00  0.3200E+02
     -4.068  0.0000E+00  0.3200E+02
     -3.934  0.0000E+00  0.3200E+02
     -3.801  0.0000E+00  0.3200E+02
     -3.668  0.0000E+00  0.3200E+02
     -3.535  0.0000E+00  0.3200E+02
     -3.402  0.0000E+00  0.3200E+02
     -3.268  0.0000E+00  0.3200E+02
     -3.135  0.0000E+00  0.3200E+02
     -3.002  0.0000E+00  0.3200E+02
     -2.869  0.0000E+00  0.3200E+02
     -2.736  0.0000E+00  0.3200E+02
     -2.602  0.0000E+00  0.3200E+02
     -2.469  0.0000E+00  0.3200E+02
     -2.336  0.0000E+00  0.3200E+02
     -2.203  0.0000E+00  0.3200E+02
     -2.070  0.0000E+00  0.3200E+02
     -1.936  0.0000E+00  0.3200E+02
     -1.803  0.0000E+00  0.3200E+02
     -1.670  0.0000E+00  0.3200E+02
     -1.537  0.0000E+00  0.3200E+02
     -1.404  0.0000E+00  0.3200E+02
     -1.270  0.0000E+00  0.3200E+02
     -1.137  0.0000E+00  0.3200E+02
     -1.004  0.0000E+00  0.3200E+02
     -0.871  0.0000E+00  0.3200E+02
     -0.738  0.0000E+00  0.3200E+02
     -0.604  0.0000E+00  0.3200E+02
     -0.471  0.1302E-16  0.3200E+02
     -0.338  0.4774E-06  0.3200E+02
     -0.205  0.2866E-01  0.3200E+02
     -0.072  0.5126E+00  0.3207E+02
      0.062  0.1364E+01  0.3225E+02
      0.195  0.3721E+01  0.3275E+02
      0.328  0.4810E+01  0.3339E+02
      0.461  0.2599E+01  0.3374E+02
      0.594  0.6408E+00  0.3382E+02
      0.728  0.1642E+01  0.3404E+02
      0.861  0.2479E+01  0.3437E+02
      0.994  0.5980E+00  0.3445E+02
      1.127  0.2862E+01  0.3483E+02
      1.260  0.2841E+01  0.3521E+02
      1.394  0.3781E+01  0.3571E+02
      1.527  0.5567E+01  0.3646E+02
      1.660  0.4878E+01  0.3710E+02
      1.793  0.3546E+01  0.3758E+02
      1.926  0.1918E+01  0.3783E+02
      2.060  0.9259E+00  0.3796E+02
      2.193  0.3467E+00  0.3800E+02
      2.326  0.1226E-01  0.3800E+02
      2.459  0.5324E-07  0.3800E+02
      2.592  0.0000E+00  0.3800E+02
      2.726  0.6736E-09  0.3800E+02
      2.859  0.4660E-02  0.3800E+02
      2.992  0.2197E+00  0.3803E+02
      3.125  0.7001E-01  0.3804E+02
      3.258  0.1164E+00  0.3806E+02
      3.392  0.2121E+00  0.3809E+02
      3.525  0.7691E+00  0.3819E+02
      3.658  0.1134E+01  0.3834E+02
      3.791  0.1263E+01  0.3851E+02
      3.925  0.3110E+01  0.3892E+02
      4.058  0.2042E+01  0.3919E+02
      4.191  0.1838E+01  0.3944E+02
      4.324  0.3680E+01  0.3993E+02
      4.457  0.2532E+01  0.4027E+02
      4.591  0.1618E+01  0.4048E+02
      4.724  0.6846E+00  0.4057E+02
      4.857  0.2542E+00  0.4061E+02
      4.990  0.1835E+01  0.4085E+02
      5.123  0.4340E+01  0.4143E+02
      5.257  0.2123E+01  0.4171E+02
      5.390  0.5496E+01  0.4244E+02
      5.523  0.2848E+01  0.4282E+02
      5.656  0.3456E+01  0.4328E+02
      5.789  0.3431E+01  0.4374E+02
      5.923  0.1662E+01  0.4396E+02
      6.056  0.1521E+01  0.4417E+02
      6.189  0.2003E+01  0.4443E+02
      6.322  0.3267E+01  0.4487E+02
      6.455  0.4438E+01  0.4546E+02
      6.589  0.1595E+01  0.4567E+02
      6.722  0.3613E+00  0.4572E+02
      6.855  0.3571E+00  0.4577E+02
      6.988  0.7478E+00  0.4587E+02
      7.121  0.8658E+00  0.4598E+02
      7.255  0.5614E-01  0.4599E+02
      7.388  0.7975E-01  0.4600E+02
      7.521  0.7261E-03  0.4600E+02
      7.654  0.3100E-10  0.4600E+02
      7.787  0.0000E+00  0.4600E+02
      7.921  0.0000E+00  0.4600E+02
      8.054  0.0000E+00  0.4600E+02
      8.187  0.0000E+00  0.4600E+02
      8.320  0.0000E+00  0.4600E+02
      8.453  0.0000E+00  0.4600E+02
      8.587  0.0000E+00  0.4600E+02
      8.720  0.0000E+00  0.4600E+02
      8.853  0.0000E+00  0.4600E+02
      8.986  0.0000E+00  0.4600E+02
      9.119  0.0000E+00  0.4600E+02
