    4    4    1    1
  0.3156016E+02  0.5630817E-09  0.5630817E-09  0.5630817E-09  0.5000000E-15
  1.000000000000000E-004
  CAR 
 unknown system                          
     38     29     23
 
  0.0000000E+00  0.0000000E+00  0.0000000E+00  0.1953125E-02
    1      -29.024723   1.000000
    2      -22.249175   1.000000
    3      -22.249169   1.000000
    4      -22.249169   1.000000
    5      -22.240653   1.000000
    6      -22.240646   1.000000
    7      -22.240646   1.000000
    8      -19.136863   1.000000
    9      -19.136862   1.000000
   10      -19.136862   1.000000
   11      -19.133752   1.000000
   12      -19.133752   1.000000
   13      -12.539569   1.000000
   14      -12.539569   1.000000
   15      -12.539568   1.000000
   16       -7.361046   1.000000
   17        2.028928   0.999968
   18        2.154470   0.673425
   19        2.154474   0.673381
   20        2.154474   0.673381
   21        4.819061   0.000000
   22        4.819061   0.000000
   23        4.819064   0.000000
 
  0.1250000E+00  0.0000000E+00  0.0000000E+00  0.1562500E-01
    1      -29.024694   1.000000
    2      -22.248846   1.000000
    3      -22.248840   1.000000
    4      -22.248819   1.000000
    5      -22.240981   1.000000
    6      -22.240977   1.000000
    7      -22.240972   1.000000
    8      -19.136937   1.000000
    9      -19.136813   1.000000
   10      -19.136812   1.000000
   11      -19.133729   1.000000
   12      -19.133729   1.000000
   13      -12.542292   1.000000
   14      -12.539583   1.000000
   15      -12.539582   1.000000
   16       -7.334438   1.000000
   17        1.205575   1.000000
   18        2.063548   0.998741
   19        2.063551   0.998740
   20        2.931602   0.000000
   21        4.909508   0.000000
   22        4.975211   0.000000
   23        4.975214   0.000000
 
  0.2500000E+00  0.0000000E+00  0.0000000E+00  0.1562500E-01
    1      -29.024622   1.000000
    2      -22.247934   1.000000
    3      -22.247928   1.000000
    4      -22.247858   1.000000
    5      -22.241919   1.000000
    6      -22.241903   1.000000
    7      -22.241897   1.000000
    8      -19.137178   1.000000
    9      -19.136738   1.000000
   10      -19.136737   1.000000
   11      -19.133732   1.000000
   12      -19.133732   1.000000
   13      -12.548831   1.000000
   14      -12.539661   1.000000
   15      -12.539660   1.000000
   16       -7.268897   1.000000
   17        0.473185   1.000000
   18        1.874522   1.000000
   19        1.874526   1.000000
   20        3.365135   0.000000
   21        5.320407   0.000000
   22        5.320410   0.000000
   23        5.509750   0.000000
 
  0.3750000E+00  0.0000000E+00  0.0000000E+00  0.1562500E-01
    1      -29.024550   1.000000
    2      -22.246577   1.000000
    3      -22.246571   1.000000
    4      -22.246491   1.000000
    5      -22.243287   1.000000
    6      -22.243281   1.000000
    7      -22.243274   1.000000
    8      -19.137420   1.000000
    9      -19.136680   1.000000
   10      -19.136679   1.000000
   11      -19.133752   1.000000
   12      -19.133752   1.000000
   13      -12.555244   1.000000
   14      -12.539750   1.000000
   15      -12.539749   1.000000
   16       -7.201395   1.000000
   17       -0.010598   1.000000
   18        1.714980   1.000000
   19        1.714984   1.000000
   20        3.465745   0.000000
   21        5.636114   0.000000
   22        5.636118   0.000000
   23        6.415799   0.000000
 
  0.5000000E+00  0.0000000E+00  0.0000000E+00  0.7812500E-02
    1      -29.024520   1.000000
    2      -22.245264   1.000000
    3      -22.245187   1.000000
    4      -22.245181   1.000000
    5      -22.244691   1.000000
    6      -22.244685   1.000000
    7      -22.244502   1.000000
    8      -19.137523   1.000000
    9      -19.136668   1.000000
   10      -19.136667   1.000000
   11      -19.133773   1.000000
   12      -19.133773   1.000000
   13      -12.557858   1.000000
   14      -12.539789   1.000000
   15      -12.539788   1.000000
   16       -7.172812   1.000000
   17       -0.180209   1.000000
   18        1.655131   1.000000
   19        1.655135   1.000000
   20        3.487477   0.000000
   21        5.763374   0.000000
   22        5.763378   0.000000
   23        6.375999   0.000000
 
  0.1250000E+00  0.1250000E+00  0.0000000E+00  0.1171875E-01
    1      -29.024685   1.000000
    2      -22.249297   1.000000
    3      -22.249293   1.000000
    4      -22.247634   1.000000
    5      -22.242140   1.000000
    6      -22.240535   1.000000
    7      -22.240531   1.000000
    8      -19.137017   1.000000
    9      -19.136780   1.000000
   10      -19.136780   1.000000
   11      -19.133785   1.000000
   12      -19.133679   1.000000
   13      -12.542016   1.000000
   14      -12.540163   1.000000
   15      -12.540162   1.000000
   16       -7.326531   1.000000
   17        1.132101   1.000000
   18        1.985931   1.000000
   19        1.985933   1.000000
   20        3.139891   0.000000
   21        4.520752   0.000000
   22        5.221416   0.000000
   23        5.221418   0.000000
 
  0.2500000E+00  0.1250000E+00  0.0000000E+00  0.4687500E-01
    1      -29.024628   1.000000
    2      -22.249084   1.000000
    3      -22.249068   1.000000
    4      -22.246022   1.000000
    5      -22.243740   1.000000
    6      -22.240769   1.000000
    7      -22.240768   1.000000
    8      -19.137207   1.000000
    9      -19.136740   1.000000
   10      -19.136712   1.000000
   11      -19.133822   1.000000
   12      -19.133627   1.000000
   13      -12.546732   1.000000
   14      -12.540632   1.000000
   15      -12.540242   1.000000
   16       -7.276332   1.000000
   17        0.617208   1.000000
   18        1.788140   1.000000
   19        1.817986   1.000000
   20        3.608558   0.000000
   21        4.539883   0.000000
   22        5.621756   0.000000
   23        5.624333   0.000000
 
  0.3750000E+00  0.1250000E+00  0.0000000E+00  0.4687500E-01
    1      -29.024557   1.000000
    2      -22.248241   1.000000
    3      -22.248215   1.000000
    4      -22.245534   1.000000
    5      -22.244225   1.000000
    6      -22.241627   1.000000
    7      -22.241613   1.000000
    8      -19.137373   1.000000
    9      -19.136734   1.000000
   10      -19.136637   1.000000
   11      -19.133802   1.000000
   12      -19.133628   1.000000
   13      -12.552740   1.000000
   14      -12.540716   1.000000
   15      -12.540592   1.000000
   16       -7.211870   1.000000
   17        0.159996   1.000000
   18        1.539865   1.000000
   19        1.670721   1.000000
   20        3.785132   0.000000
   21        5.090096   0.000000
   22        5.760573   0.000000
   23        5.890788   0.000000
 
  0.5000000E+00  0.1250000E+00  0.0000000E+00  0.4687500E-01
    1      -29.024514   1.000000
    2      -22.247302   1.000000
    3      -22.246891   1.000000
    4      -22.246797   1.000000
    5      -22.242985   1.000000
    6      -22.242925   1.000000
    7      -22.242575   1.000000
    8      -19.137442   1.000000
    9      -19.136761   1.000000
   10      -19.136606   1.000000
   11      -19.133750   1.000000
   12      -19.133687   1.000000
   13      -12.556288   1.000000
   14      -12.541278   1.000000
   15      -12.540363   1.000000
   16       -7.171192   1.000000
   17       -0.071805   1.000000
   18        1.374782   1.000000
   19        1.610917   1.000000
   20        3.864987   0.000000
   21        5.266798   0.000000
   22        5.953170   0.000000
   23        6.312520   0.000000
 
 -0.3750000E+00  0.1250000E+00  0.0000000E+00  0.4687500E-01
    1      -29.024523   1.000000
    2      -22.248542   1.000000
    3      -22.245309   1.000000
    4      -22.245273   1.000000
    5      -22.244595   1.000000
    6      -22.244469   1.000000
    7      -22.241290   1.000000
    8      -19.137393   1.000000
    9      -19.136765   1.000000
   10      -19.136648   1.000000
   11      -19.133763   1.000000
   12      -19.133686   1.000000
   13      -12.555479   1.000000
   14      -12.541828   1.000000
   15      -12.539792   1.000000
   16       -7.179637   1.000000
   17       -0.023144   1.000000
   18        1.352728   1.000000
   19        1.661490   1.000000
   20        3.898162   0.000000
   21        5.323158   0.000000
   22        5.768015   0.000000
   23        6.418246   0.000000
 
 -0.2500000E+00  0.1250000E+00  0.0000000E+00  0.4687500E-01
    1      -29.024580   1.000000
    2      -22.249312   1.000000
    3      -22.246332   1.000000
    4      -22.246238   1.000000
    5      -22.243541   1.000000
    6      -22.243511   1.000000
    7      -22.240531   1.000000
    8      -19.137256   1.000000
    9      -19.136756   1.000000
   10      -19.136709   1.000000
   11      -19.133798   1.000000
   12      -19.133664   1.000000
   13      -12.550887   1.000000
   14      -12.541790   1.000000
   15      -12.539319   1.000000
   16       -7.231849   1.000000
   17        0.288845   1.000000
   18        1.493241   1.000000
   19        1.806451   1.000000
   20        3.823220   0.000000
   21        5.289623   0.000000
   22        5.396565   0.000000
   23        5.693417   0.000000
 
 -0.1250000E+00  0.1250000E+00  0.0000000E+00  0.2343750E-01
    1      -29.024651   1.000000
    2      -22.249422   1.000000
    3      -22.247805   1.000000
    4      -22.247748   1.000000
    5      -22.242037   1.000000
    6      -22.242022   1.000000
    7      -22.240416   1.000000
    8      -19.137090   1.000000
    9      -19.136796   1.000000
   10      -19.136773   1.000000
   11      -19.133793   1.000000
   12      -19.133690   1.000000
   13      -12.545394   1.000000
   14      -12.540897   1.000000
   15      -12.539236   1.000000
   16       -7.295784   1.000000
   17        0.769885   1.000000
   18        1.783355   1.000000
   19        1.979689   1.000000
   20        3.442782   0.000000
   21        4.868064   0.000000
   22        5.060567   0.000000
   23        5.505724   0.000000
 
  0.2500000E+00  0.2500000E+00  0.0000000E+00  0.1171875E-01
    1      -29.024594   1.000000
    2      -22.249607   1.000000
    3      -22.249603   1.000000
    4      -22.245756   1.000000
    5      -22.243946   1.000000
    6      -22.240269   1.000000
    7      -22.240265   1.000000
    8      -19.137421   1.000000
    9      -19.136625   1.000000
   10      -19.136624   1.000000
   11      -19.133849   1.000000
   12      -19.133517   1.000000
   13      -12.547348   1.000000
   14      -12.541661   1.000000
   15      -12.541660   1.000000
   16       -7.249928   1.000000
   17        0.494781   1.000000
   18        1.685978   1.000000
   19        1.685981   1.000000
   20        3.853769   0.000000
   21        4.015166   0.000000
   22        6.005528   0.000000
   23        6.186123   0.000000
 
  0.3750000E+00  0.2500000E+00  0.0000000E+00  0.4687500E-01
    1      -29.024540   1.000000
    2      -22.249422   1.000000
    3      -22.249418   1.000000
    4      -22.247642   1.000000
    5      -22.242035   1.000000
    6      -22.240485   1.000000
    7      -22.240473   1.000000
    8      -19.137593   1.000000
    9      -19.136622   1.000000
   10      -19.136563   1.000000
   11      -19.133826   1.000000
   12      -19.133486   1.000000
   13      -12.550786   1.000000
   14      -12.542570   1.000000
   15      -12.542150   1.000000
   16       -7.204704   1.000000
   17        0.277297   1.000000
   18        1.409512   1.000000
   19        1.564764   1.000000
   20        3.902316   0.000000
   21        4.262575   0.000000
   22        5.795331   0.000000
   23        6.458186   0.000000
 
  0.5000000E+00  0.2500000E+00  0.0000000E+00  0.4687500E-01
    1      -29.024497   1.000000
    2      -22.249258   1.000000
    3      -22.248541   1.000000
    4      -22.248418   1.000000
    5      -22.241369   1.000000
    6      -22.241324   1.000000
    7      -22.240571   1.000000
    8      -19.137545   1.000000
    9      -19.136760   1.000000
   10      -19.136531   1.000000
   11      -19.133738   1.000000
   12      -19.133544   1.000000
   13      -12.553073   1.000000
   14      -12.544353   1.000000
   15      -12.541811   1.000000
   16       -7.166998   1.000000
   17        0.170460   1.000000
   18        1.024331   1.000000
   19        1.512480   1.000000
   20        3.995066   0.000000
   21        5.113843   0.000000
   22        5.509019   0.000000
   23        6.456361   0.000000
 
 -0.3750000E+00  0.2500000E+00  0.0000000E+00  0.4687500E-01
    1      -29.024492   1.000000
    2      -22.250001   1.000000
    3      -22.247114   1.000000
    4      -22.247102   1.000000
    5      -22.242782   1.000000
    6      -22.242682   1.000000
    7      -22.239800   1.000000
    8      -19.137303   1.000000
    9      -19.136977   1.000000
   10      -19.136565   1.000000
   11      -19.133664   1.000000
   12      -19.133651   1.000000
   13      -12.552876   1.000000
   14      -12.546047   1.000000
   15      -12.540841   1.000000
   16       -7.159380   1.000000
   17        0.184391   1.000000
   18        0.822957   1.000000
   19        1.551227   1.000000
   20        4.258842   0.000000
   21        5.292731   0.000000
   22        6.154240   0.000000
   23        6.232448   0.000000
 
 -0.2500000E+00  0.2500000E+00  0.0000000E+00  0.2343750E-01
    1      -29.024525   1.000000
    2      -22.250032   1.000000
    3      -22.245382   1.000000
    4      -22.245347   1.000000
    5      -22.244519   1.000000
    6      -22.244400   1.000000
    7      -22.239799   1.000000
    8      -19.137221   1.000000
    9      -19.136937   1.000000
   10      -19.136631   1.000000
   11      -19.133765   1.000000
   12      -19.133622   1.000000
   13      -12.551906   1.000000
   14      -12.545077   1.000000
   15      -12.539810   1.000000
   16       -7.186442   1.000000
   17        0.208098   1.000000
   18        1.012823   1.000000
   19        1.667896   1.000000
   20        4.415548   0.000000
   21        5.281831   0.000000
   22        5.518279   0.000000
   23        5.773828   0.000000
 
  0.3750000E+00  0.3750000E+00  0.0000000E+00  0.1171875E-01
    1      -29.024510   1.000000
    2      -22.249912   1.000000
    3      -22.249908   1.000000
    4      -22.249370   1.000000
    5      -22.240252   1.000000
    6      -22.240015   1.000000
    7      -22.240011   1.000000
    8      -19.137857   1.000000
    9      -19.136474   1.000000
   10      -19.136473   1.000000
   11      -19.133774   1.000000
   12      -19.133371   1.000000
   13      -12.551800   1.000000
   14      -12.543191   1.000000
   15      -12.543190   1.000000
   16       -7.184089   1.000000
   17        0.222850   1.000000
   18        1.466000   1.000000
   19        1.466002   1.000000
   20        3.646781   0.000000
   21        3.769358   0.000000
   22        6.408564   0.000000
   23        6.999853   0.000000
 
  0.5000000E+00  0.3750000E+00  0.0000000E+00  0.4687500E-01
    1      -29.024482   1.000000
    2      -22.250479   1.000000
    3      -22.249647   1.000000
    4      -22.249582   1.000000
    5      -22.240288   1.000000
    6      -22.240270   1.000000
    7      -22.239204   1.000000
    8      -19.137878   1.000000
    9      -19.136519   1.000000
   10      -19.136446   1.000000
   11      -19.133712   1.000000
   12      -19.133383   1.000000
   13      -12.552503   1.000000
   14      -12.544777   1.000000
   15      -12.543241   1.000000
   16       -7.162355   1.000000
   17        0.224513   1.000000
   18        1.145248   1.000000
   19        1.423648   1.000000
   20        3.672062   0.000000
   21        4.045698   0.000000
   22        6.502343   0.000000
   23        7.048726   0.000000
 
 -0.3750000E+00  0.3750000E+00  0.0000000E+00  0.2343750E-01
    1      -29.024477   1.000000
    2      -22.250696   1.000000
    3      -22.248667   1.000000
    4      -22.248610   1.000000
    5      -22.241263   1.000000
    6      -22.241198   1.000000
    7      -22.239053   1.000000
    8      -19.137623   1.000000
    9      -19.136776   1.000000
   10      -19.136487   1.000000
   11      -19.133669   1.000000
   12      -19.133516   1.000000
   13      -12.550672   1.000000
   14      -12.548250   1.000000
   15      -12.542284   1.000000
   16       -7.152228   1.000000
   17        0.397091   1.000000
   18        0.635258   1.000000
   19        1.456198   1.000000
   20        3.892613   0.000000
   21        4.999888   0.000000
   22        6.182812   0.000000
   23        6.713071   0.000000
 
  0.5000000E+00  0.5000000E+00  0.0000000E+00  0.5859375E-02
    1      -29.024475   1.000000
    2      -22.250861   1.000000
    3      -22.250034   1.000000
    4      -22.250030   1.000000
    5      -22.239911   1.000000
    6      -22.239906   1.000000
    7      -22.238717   1.000000
    8      -19.138044   1.000000
    9      -19.136401   1.000000
   10      -19.136400   1.000000
   11      -19.133694   1.000000
   12      -19.133301   1.000000
   13      -12.553387   1.000000
   14      -12.543835   1.000000
   15      -12.543834   1.000000
   16       -7.160302   1.000000
   17        0.174449   1.000000
   18        1.389182   1.000000
   19        1.389185   1.000000
   20        3.516686   0.000000
   21        3.556792   0.000000
   22        7.111675   0.000000
   23        7.302980   0.000000
 
  0.3750000E+00  0.2500000E+00  0.1250000E+00  0.4687500E-01
    1      -29.024572   1.000000
    2      -22.249731   1.000000
    3      -22.248102   1.000000
    4      -22.245638   1.000000
    5      -22.244103   1.000000
    6      -22.241762   1.000000
    7      -22.240129   1.000000
    8      -19.137358   1.000000
    9      -19.136726   1.000000
   10      -19.136652   1.000000
   11      -19.133827   1.000000
   12      -19.133575   1.000000
   13      -12.549694   1.000000
   14      -12.542656   1.000000
   15      -12.540252   1.000000
   16       -7.228883   1.000000
   17        0.355934   1.000000
   18        1.431558   1.000000
   19        1.708160   1.000000
   20        4.089383   0.000000
   21        4.510038   0.000000
   22        5.570864   0.000000
   23        6.003337   0.000000
 
  0.5000000E+00  0.2500000E+00  0.1250000E+00  0.9375000E-01
    1      -29.024517   1.000000
    2      -22.249665   1.000000
    3      -22.247414   1.000000
    4      -22.246646   1.000000
    5      -22.243232   1.000000
    6      -22.242321   1.000000
    7      -22.240199   1.000000
    8      -19.137386   1.000000
    9      -19.136840   1.000000
   10      -19.136583   1.000000
   11      -19.133772   1.000000
   12      -19.133588   1.000000
   13      -12.552827   1.000000
   14      -12.543930   1.000000
   15      -12.540755   1.000000
   16       -7.180692   1.000000
   17        0.160996   1.000000
   18        1.126229   1.000000
   19        1.555097   1.000000
   20        4.320682   0.000000
   21        5.044435   0.000000
   22        5.332620   0.000000
   23        6.326043   0.000000
 
 -0.3750000E+00  0.2500000E+00  0.1250000E+00  0.4687500E-01
    1      -29.024493   1.000000
    2      -22.249139   1.000000
    3      -22.248536   1.000000
    4      -22.245089   1.000000
    5      -22.244797   1.000000
    6      -22.241023   1.000000
    7      -22.240894   1.000000
    8      -19.137342   1.000000
    9      -19.136937   1.000000
   10      -19.136547   1.000000
   11      -19.133676   1.000000
   12      -19.133653   1.000000
   13      -12.554177   1.000000
   14      -12.544175   1.000000
   15      -12.541153   1.000000
   16       -7.160496   1.000000
   17        0.089808   1.000000
   18        1.014811   1.000000
   19        1.489841   1.000000
   20        4.399974   0.000000
   21        4.921163   0.000000
   22        6.128021   0.000000
   23        6.259921   0.000000
 
  0.5000000E+00  0.3750000E+00  0.1250000E+00  0.4687500E-01
    1      -29.024500   1.000000
    2      -22.250118   1.000000
    3      -22.249167   1.000000
    4      -22.248421   1.000000
    5      -22.241502   1.000000
    6      -22.240430   1.000000
    7      -22.239844   1.000000
    8      -19.137666   1.000000
    9      -19.136673   1.000000
   10      -19.136487   1.000000
   11      -19.133749   1.000000
   12      -19.133461   1.000000
   13      -12.551795   1.000000
   14      -12.544452   1.000000
   15      -12.542678   1.000000
   16       -7.173466   1.000000
   17        0.242914   1.000000
   18        1.175300   1.000000
   19        1.369805   1.000000
   20        4.188380   0.000000
   21        4.242090   0.000000
   22        5.729956   0.000000
   23        6.933194   0.000000
 
 -0.3750000E+00  0.3750000E+00  0.1250000E+00  0.9375000E-01
    1      -29.024477   1.000000
    2      -22.250465   1.000000
    3      -22.249600   1.000000
    4      -22.246903   1.000000
    5      -22.243021   1.000000
    6      -22.239990   1.000000
    7      -22.239493   1.000000
    8      -19.137481   1.000000
    9      -19.136913   1.000000
   10      -19.136452   1.000000
   11      -19.133659   1.000000
   12      -19.133523   1.000000
   13      -12.551158   1.000000
   14      -12.546820   1.000000
   15      -12.542938   1.000000
   16       -7.153515   1.000000
   17        0.346701   1.000000
   18        0.782761   1.000000
   19        1.285574   1.000000
   20        4.330129   0.000000
   21        5.070611   0.000000
   22        5.514187   0.000000
   23        6.369650   0.000000
 
 -0.2500000E+00  0.3750000E+00  0.1250000E+00  0.4687500E-01
    1      -29.024483   1.000000
    2      -22.250428   1.000000
    3      -22.248863   1.000000
    4      -22.245087   1.000000
    5      -22.244822   1.000000
    6      -22.240826   1.000000
    7      -22.239451   1.000000
    8      -19.137207   1.000000
    9      -19.137137   1.000000
   10      -19.136495   1.000000
   11      -19.133664   1.000000
   12      -19.133589   1.000000
   13      -12.550910   1.000000
   14      -12.547536   1.000000
   15      -12.541886   1.000000
   16       -7.156528   1.000000
   17        0.336385   1.000000
   18        0.716060   1.000000
   19        1.379946   1.000000
   20        4.632714   0.000000
   21        5.221711   0.000000
   22        5.376267   0.000000
   23        6.194636   0.000000
 
 -0.3750000E+00  0.5000000E+00  0.1250000E+00  0.2343750E-01
    1      -29.024474   1.000000
    2      -22.250905   1.000000
    3      -22.249998   1.000000
    4      -22.248551   1.000000
    5      -22.241393   1.000000
    6      -22.239746   1.000000
    7      -22.238881   1.000000
    8      -19.137796   1.000000
    9      -19.136647   1.000000
   10      -19.136402   1.000000
   11      -19.133673   1.000000
   12      -19.133410   1.000000
   13      -12.551962   1.000000
   14      -12.545211   1.000000
   15      -12.544160   1.000000
   16       -7.154169   1.000000
   17        0.286862   1.000000
   18        1.085513   1.000000
   19        1.185566   1.000000
   20        4.074275   0.000000
   21        4.081408   0.000000
   22        6.422889   0.000000
   23        6.729328   0.000000
 
 -0.2500000E+00  0.5000000E+00  0.2500000E+00  0.1171875E-01
    1      -29.024469   1.000000
    2      -22.250943   1.000000
    3      -22.249964   1.000000
    4      -22.244969   1.000000
    5      -22.244968   1.000000
    6      -22.239464   1.000000
    7      -22.239157   1.000000
    8      -19.137226   1.000000
    9      -19.137225   1.000000
   10      -19.136405   1.000000
   11      -19.133615   1.000000
   12      -19.133540   1.000000
   13      -12.548568   1.000000
   14      -12.548567   1.000000
   15      -12.544480   1.000000
   16       -7.147994   1.000000
   17        0.612868   1.000000
   18        0.612872   1.000000
   19        1.022905   1.000000
   20        4.934328   0.000000
   21        5.286904   0.000000
   22        5.286912   0.000000
   23        5.500671   0.000000
