       N       E                     dE             d eps       ncg     rms          rms(c)
DAV:   1     0.384069177298E+03    0.38407E+03   -0.20019E+04  1342   0.177E+03
DAV:   2     0.239446766173E+02   -0.36012E+03   -0.35691E+03  1348   0.488E+02
DAV:   3    -0.863540197695E+01   -0.32580E+02   -0.32516E+02  2085   0.162E+02
DAV:   4    -0.953492221440E+01   -0.89952E+00   -0.89914E+00  1865   0.266E+01
DAV:   5    -0.956776426443E+01   -0.32842E-01   -0.32841E-01  2208   0.325E+00    0.371E+00
DAV:   6    -0.921998563777E+01    0.34778E+00   -0.72948E-01  1996   0.324E+00    0.276E+00
DAV:   7    -0.914451136343E+01    0.75474E-01   -0.37272E-01  1766   0.246E+00    0.140E+00
DAV:   8    -0.914687254944E+01   -0.23612E-02   -0.42201E-02  1695   0.174E+00    0.173E-01
DAV:   9    -0.914662201369E+01    0.25054E-03   -0.49493E-03  1672   0.596E-01    0.897E-02
DAV:  10    -0.914668777002E+01   -0.65756E-04   -0.71762E-04  1852   0.145E-01    0.440E-02
DAV:  11    -0.914668849930E+01   -0.72928E-06   -0.41023E-05  1796   0.429E-02    0.789E-03
DAV:  12    -0.914668910392E+01   -0.60462E-06   -0.10752E-05  1705   0.219E-02    0.216E-03
DAV:  13    -0.914668927169E+01   -0.16777E-06   -0.45952E-07  2101   0.502E-03    0.617E-04
DAV:  14    -0.914668922658E+01    0.45104E-07   -0.38362E-08  1461   0.148E-03    0.220E-04
DAV:  15    -0.914668922704E+01   -0.45657E-09   -0.28073E-09  1136   0.328E-04
   1 F= -.91466892E+01 E0= -.91466099E+01  d E =-.158633E-03
