 vasp.5.4.4.18Apr17-6-g9f103f2a35 (build Jun 23 2019 17:35:09) complex          
  
 executed on             LinuxIFC date 2020.01.15  15:37:18
 running on   28 total cores
 distrk:  each k-point on    7 cores,    4 groups
 distr:  one band on NCORES_PER_BAND=   7 cores,    1 groups


--------------------------------------------------------------------------------------------------------


 INCAR:
 POTCAR:    PAW_PBE Bi_d 06Sep2000                
 POTCAR:    PAW_PBE K_sv 06Sep2000                
 POTCAR:    PAW_PBE Na_pv 19Sep2006               

 ----------------------------------------------------------------------------- 
|                                                                             |
|           W    W    AA    RRRRR   N    N  II  N    N   GGGG   !!!           |
|           W    W   A  A   R    R  NN   N  II  NN   N  G    G  !!!           |
|           W    W  A    A  R    R  N N  N  II  N N  N  G       !!!           |
|           W WW W  AAAAAA  RRRRR   N  N N  II  N  N N  G  GGG   !            |
|           WW  WW  A    A  R   R   N   NN  II  N   NN  G    G                |
|           W    W  A    A  R    R  N    N  II  N    N   GGGG   !!!           |
|                                                                             |
|      You have enabled k-point parallelism (KPAR>1).                         |
|      This developmental code was originally  written by Paul Kent at ORNL,  |
|      and carefully double checked in Vienna.                                |
|      GW as well as linear response parallelism added by Martijn Marsman     |
|      and Georg Kresse.                                                      |
|      Carefully verify results versus KPAR=1.                                |
|      Report problems to Paul Kent and Vienna.                               |
|                                                                             |
 ----------------------------------------------------------------------------- 

 POTCAR:    PAW_PBE Bi_d 06Sep2000                
   VRHFIN =Bi:                                                                  
   LEXCH  = PE                                                                  
   EATOM  =  1959.2045 eV,  143.9975 Ry                                         
                                                                                
   TITEL  = PAW_PBE Bi_d 06Sep2000                                              
   LULTRA =        F    use ultrasoft PP ?                                      
   IUNSCR =        1    unscreen: 0-lin 1-nonlin 2-no                           
   RPACOR =    2.200    partial core radius                                     
   POMASS =  208.980; ZVAL   =   15.000    mass and valenz                      
   RCORE  =    2.500    outmost cutoff radius                                   
   RWIGS  =    3.090; RWIGS  =    1.635    wigner-seitz radius (au A)           
   ENMAX  =  242.839; ENMIN  =  182.129 eV                                      
   ICORE  =        3    local potential                                         
   LCOR   =        T    correct aug charges                                     
   LPAW   =        T    paw PP                                                  
   EAUG   =  442.899                                                            
   DEXC   =    0.000                                                            
   RMAX   =    2.551    core radius for proj-oper                               
   RAUG   =    1.300    factor for augmentation sphere                          
   RDEP   =    2.650    radius for radial grids                                 
   RDEPT  =    2.039    core radius for aug-charge                              
                                                                                
   Atomic configuration                                                         
   16 entries                                                                   
     n  l   j            E        occ.                                          
     1  0  0.50    -90639.6581   2.0000                                         
     2  0  0.50    -16282.4666   2.0000                                         
     2  1  1.50    -13922.8286   6.0000                                         
     3  0  0.50     -3930.4763   2.0000                                         
     3  1  1.50     -3256.7013   6.0000                                         
     3  2  2.50     -2581.6168  10.0000                                         
     4  0  0.50      -902.2614   2.0000                                         
     4  1  1.50      -681.5915   6.0000                                         
     4  2  2.50      -429.8249  10.0000                                         
     4  3  3.50      -152.6004  14.0000                                         
     5  0  0.50      -157.7156   2.0000                                         
     5  1  1.50       -95.8054   6.0000                                         
     5  2  2.50       -27.0806  10.0000                                         
     6  0  0.50       -14.4732   2.0000                                         
     6  1  1.50        -4.5702   3.0000                                         
     5  3  2.50        -2.7212   0.0000                                         
   Description                                                                  
     l       E           TYP  RCUT    TYP  RCUT                                 
     2    -27.0805982     23  2.500                                             
     2     -1.3605826     23  2.500                                             
     0    -14.4732271     23  2.500                                             
     0      6.8029130     23  2.500                                             
     1     -4.5701651     23  2.500                                             
     1     13.6058260     23  2.500                                             
     3     -1.3605826      7  2.500                                             
  local pseudopotential read in
  partial core-charges read in
  partial kinetic energy density read in
  atomic valenz-charges read in
  non local Contribution for L=           2  read in
    real space projection operators read in
  non local Contribution for L=           2  read in
    real space projection operators read in
  non local Contribution for L=           0  read in
    real space projection operators read in
  non local Contribution for L=           0  read in
    real space projection operators read in
  non local Contribution for L=           1  read in
    real space projection operators read in
  non local Contribution for L=           1  read in
    real space projection operators read in
    PAW grid and wavefunctions read in
 
   number of l-projection  operators is LMAX  =           6
   number of lm-projection operators is LMMAX =          18
 
 POTCAR:    PAW_PBE K_sv 06Sep2000                
   VRHFIN =K:  3s3p4s                                                           
   LEXCH  = PE                                                                  
   EATOM  =   775.0067 eV,   56.9614 Ry                                         
                                                                                
   TITEL  = PAW_PBE K_sv 06Sep2000                                              
   LULTRA =        F    use ultrasoft PP ?                                      
   IUNSCR =        1    unscreen: 0-lin 1-nonlin 2-no                           
   RPACOR =    2.200    partial core radius                                     
   POMASS =   39.098; ZVAL   =    9.000    mass and valenz                      
   RCORE  =    2.300    outmost cutoff radius                                   
   RWIGS  =    3.000; RWIGS  =    1.588    wigner-seitz radius (au A)           
   ENMAX  =  259.264; ENMIN  =  194.448 eV                                      
   RCLOC  =    2.005    cutoff for local pot                                    
   LCOR   =        T    correct aug charges                                     
   LPAW   =        T    paw PP                                                  
   EAUG   =  427.853                                                            
   DEXC   =    0.000                                                            
   RMAX   =    2.358    core radius for proj-oper                               
   RAUG   =    1.300    factor for augmentation sphere                          
   RDEP   =    2.372    radius for radial grids                                 
   RDEPT  =    2.002    core radius for aug-charge                              
                                                                                
   Atomic configuration                                                         
    7 entries                                                                   
     n  l   j            E        occ.                                          
     1  0  0.50     -3522.0595   2.0000                                         
     2  0  0.50      -353.3851   2.0000                                         
     2  1  1.50      -280.0935   6.0000                                         
     3  0  0.50       -35.3419   2.0000                                         
     4  0  0.50        -2.3190   1.0000                                         
     3  1  1.50       -18.8125   6.0000                                         
     3  2  1.50        -1.3606   0.0000                                         
   Description                                                                  
     l       E           TYP  RCUT    TYP  RCUT                                 
     0    -35.3418873     23  2.300                                             
     0     -2.3190215     23  2.300                                             
     1    -18.8124623     23  2.300                                             
     1    -20.4087390     23  2.300                                             
     2     -1.3605826     23  2.300                                             
  local pseudopotential read in
  partial core-charges read in
  partial kinetic energy density read in
  atomic valenz-charges read in
  non local Contribution for L=           0  read in
    real space projection operators read in
  non local Contribution for L=           0  read in
    real space projection operators read in
  non local Contribution for L=           1  read in
    real space projection operators read in
  non local Contribution for L=           1  read in
    real space projection operators read in
  non local Contribution for L=           2  read in
    real space projection operators read in
    PAW grid and wavefunctions read in
 
   number of l-projection  operators is LMAX  =           5
   number of lm-projection operators is LMMAX =          13
 
 POTCAR:    PAW_PBE Na_pv 19Sep2006               
   VRHFIN =Na: p6s1                                                             
   LEXCH  = PE                                                                  
   EATOM  =   766.0439 eV,   56.3026 Ry                                         
                                                                                
   TITEL  = PAW_PBE Na_pv 19Sep2006                                             
   LULTRA =        F    use ultrasoft PP ?                                      
   IUNSCR =        1    unscreen: 0-lin 1-nonlin 2-no                           
   RPACOR =    1.800    partial core radius                                     
   POMASS =   22.990; ZVAL   =    7.000    mass and valenz                      
   RCORE  =    2.200    outmost cutoff radius                                   
   RWIGS  =    2.200; RWIGS  =    1.164    wigner-seitz radius (au A)           
   ENMAX  =  259.561; ENMIN  =  194.671 eV                                      
   ICORE  =        2    local potential                                         
   LCOR   =        T    correct aug charges                                     
   LPAW   =        T    paw PP                                                  
   EAUG   =  368.056                                                            
   DEXC   =    0.000                                                            
   RMAX   =    2.245    core radius for proj-oper                               
   RAUG   =    1.300    factor for augmentation sphere                          
   RDEP   =    2.259    radius for radial grids                                 
   RDEPT  =    1.738    core radius for aug-charge                              
                                                                                
   Atomic configuration                                                         
    5 entries                                                                   
     n  l   j            E        occ.                                          
     1  0  0.50     -1033.6933   2.0000                                         
     2  0  0.50       -56.7526   2.0000                                         
     2  1  1.50       -28.6721   6.0000                                         
     3  0  0.50        -2.7440   1.0000                                         
     3  2  1.50        -1.3606   0.0000                                         
   Description                                                                  
     l       E           TYP  RCUT    TYP  RCUT                                 
     1    -28.6720912     23  2.000                                             
     1      6.8029130     23  2.000                                             
     0     -2.7439560     23  2.200                                             
     0     34.0145650     23  2.200                                             
     2     -1.3605826     23  2.200                                             
  local pseudopotential read in
  partial core-charges read in
  partial kinetic energy density read in
  atomic valenz-charges read in
  non local Contribution for L=           1  read in
    real space projection operators read in
  non local Contribution for L=           1  read in
    real space projection operators read in
  non local Contribution for L=           0  read in
    real space projection operators read in
  non local Contribution for L=           0  read in
    real space projection operators read in
    PAW grid and wavefunctions read in
 
   number of l-projection  operators is LMAX  =           4
   number of lm-projection operators is LMMAX =           8
 
  PAW_PBE Bi_d 06Sep2000                :
 energy of atom  1       EATOM=-1959.2045
 kinetic energy error for atom=    0.0040 (will be added to EATOM!!)
  PAW_PBE K_sv 06Sep2000                :
 energy of atom  2       EATOM= -775.0067
 kinetic energy error for atom=    0.0014 (will be added to EATOM!!)
  PAW_PBE Na_pv 19Sep2006               :
 energy of atom  3       EATOM= -766.0439
 kinetic energy error for atom=    0.0019 (will be added to EATOM!!)
 
 
 POSCAR: Na K Bi                                 
  positions in direct lattice
  velocities in cartesian coordinates
 exchange correlation table for  LEXCH =        8
   RHO(1)=    0.500       N(1)  =     2000
   RHO(2)=  100.500       N(2)  =     4000
 


--------------------------------------------------------------------------------------------------------


 ion  position               nearest neighbor table
   1  0.250  0.250  0.250-
   2  0.750  0.750  0.750-
   3  0.000  0.000  0.000-
   4  0.500  0.500  0.500-
 
  LATTYP: Found a face centered cubic cell.
 ALAT       =     7.9631776941
  
  Lattice vectors:
  
 A1 = (   0.0000000000,   3.9815888470,   3.9815888470)
 A2 = (   3.9815888470,   0.0000000000,   3.9815888470)
 A3 = (   3.9815888470,   3.9815888470,   0.0000000000)


Analysis of symmetry for initial positions (statically):
=====================================================================
 Subroutine PRICEL returns:
 Original cell was already a primitive cell.
 

 Routine SETGRP: Setting up the symmetry group for a 
 face centered cubic supercell.


 Subroutine GETGRP returns: Found 48 space group operations
 (whereof 24 operations were pure point group operations)
 out of a pool of 48 trial point group operations.


The static configuration has the point symmetry T_d .
 The point group associated with its full space group is O_h .


Analysis of symmetry for dynamics (positions and initial velocities):
=====================================================================
 Subroutine PRICEL returns:
 Original cell was already a primitive cell.
 

 Routine SETGRP: Setting up the symmetry group for a 
 face centered cubic supercell.


 Subroutine GETGRP returns: Found 48 space group operations
 (whereof 24 operations were pure point group operations)
 out of a pool of 48 trial point group operations.


The dynamic configuration has the point symmetry T_d .
 The point group associated with its full space group is O_h .


 Subroutine INISYM returns: Found 48 space group operations
 (whereof 24 operations are pure point group operations),
 and found     1 'primitive' translations

 
 
 KPOINTS: KPOINTS                                 

Automatic generation of k-mesh.
Space group operators:
 irot       det(A)        alpha          n_x          n_y          n_z        tau_x        tau_y        tau_z
    1     1.000000     0.000000     1.000000     0.000000     0.000000     0.000000     0.000000     0.000000
    2     1.000000   120.000000    -0.577350    -0.577350    -0.577350     0.000000     0.000000     0.000000
    3     1.000000   120.000000     0.577350     0.577350     0.577350     0.000000     0.000000     0.000000
    4    -1.000000    90.000000     0.000000     0.000000    -1.000000     0.000000     0.000000     0.000000
    5    -1.000000   180.000000     0.000000     0.707107     0.707107     0.000000     0.000000     0.000000
    6    -1.000000    90.000000     0.000000     1.000000     0.000000     0.000000     0.000000     0.000000
    7     1.000000   180.000000     0.000000     0.000000     1.000000     0.000000     0.000000     0.000000
    8     1.000000   120.000000    -0.577350     0.577350     0.577350     0.000000     0.000000     0.000000
    9     1.000000   120.000000    -0.577350     0.577350    -0.577350     0.000000     0.000000     0.000000
   10    -1.000000    90.000000     0.000000     0.000000     1.000000     0.000000     0.000000     0.000000
   11    -1.000000    90.000000    -1.000000     0.000000     0.000000     0.000000     0.000000     0.000000
   12    -1.000000   180.000000     0.707107     0.000000     0.707107     0.000000     0.000000     0.000000
   13     1.000000   120.000000     0.577350    -0.577350     0.577350     0.000000     0.000000     0.000000
   14     1.000000   120.000000    -0.577350    -0.577350     0.577350     0.000000     0.000000     0.000000
   15     1.000000   180.000000     1.000000     0.000000     0.000000     0.000000     0.000000     0.000000
   16    -1.000000    90.000000     0.000000    -1.000000     0.000000     0.000000     0.000000     0.000000
   17    -1.000000   180.000000     0.707107     0.707107     0.000000     0.000000     0.000000     0.000000
   18    -1.000000    90.000000     1.000000     0.000000     0.000000     0.000000     0.000000     0.000000
   19     1.000000   120.000000     0.577350    -0.577350    -0.577350     0.000000     0.000000     0.000000
   20     1.000000   180.000000     0.000000     1.000000     0.000000     0.000000     0.000000     0.000000
   21     1.000000   120.000000     0.577350     0.577350    -0.577350     0.000000     0.000000     0.000000
   22    -1.000000   180.000000     0.000000    -0.707107     0.707107     0.000000     0.000000     0.000000
   23    -1.000000   180.000000     0.707107    -0.707107     0.000000     0.000000     0.000000     0.000000
   24    -1.000000   180.000000     0.707107     0.000000    -0.707107     0.000000     0.000000     0.000000
   25    -1.000000     0.000000     1.000000     0.000000     0.000000     0.500000     0.500000     0.500000
   26    -1.000000   120.000000    -0.577350    -0.577350    -0.577350     0.500000     0.500000     0.500000
   27    -1.000000   120.000000     0.577350     0.577350     0.577350     0.500000     0.500000     0.500000
   28     1.000000    90.000000     0.000000     0.000000    -1.000000     0.500000     0.500000     0.500000
   29     1.000000   180.000000     0.000000     0.707107     0.707107     0.500000     0.500000     0.500000
   30     1.000000    90.000000     0.000000     1.000000     0.000000     0.500000     0.500000     0.500000
   31    -1.000000   180.000000     0.000000     0.000000     1.000000     0.500000     0.500000     0.500000
   32    -1.000000   120.000000    -0.577350     0.577350     0.577350     0.500000     0.500000     0.500000
   33    -1.000000   120.000000    -0.577350     0.577350    -0.577350     0.500000     0.500000     0.500000
   34     1.000000    90.000000     0.000000     0.000000     1.000000     0.500000     0.500000     0.500000
   35     1.000000    90.000000    -1.000000     0.000000     0.000000     0.500000     0.500000     0.500000
   36     1.000000   180.000000     0.707107     0.000000     0.707107     0.500000     0.500000     0.500000
   37    -1.000000   120.000000     0.577350    -0.577350     0.577350     0.500000     0.500000     0.500000
   38    -1.000000   120.000000    -0.577350    -0.577350     0.577350     0.500000     0.500000     0.500000
   39    -1.000000   180.000000     1.000000     0.000000     0.000000     0.500000     0.500000     0.500000
   40     1.000000    90.000000     0.000000    -1.000000     0.000000     0.500000     0.500000     0.500000
   41     1.000000   180.000000     0.707107     0.707107     0.000000     0.500000     0.500000     0.500000
   42     1.000000    90.000000     1.000000     0.000000     0.000000     0.500000     0.500000     0.500000
   43    -1.000000   120.000000     0.577350    -0.577350    -0.577350     0.500000     0.500000     0.500000
   44    -1.000000   180.000000     0.000000     1.000000     0.000000     0.500000     0.500000     0.500000
   45    -1.000000   120.000000     0.577350     0.577350    -0.577350     0.500000     0.500000     0.500000
   46     1.000000   180.000000     0.000000    -0.707107     0.707107     0.500000     0.500000     0.500000
   47     1.000000   180.000000     0.707107    -0.707107     0.000000     0.500000     0.500000     0.500000
   48     1.000000   180.000000     0.707107     0.000000    -0.707107     0.500000     0.500000     0.500000
 
 Subroutine IBZKPT returns following result:
 ===========================================
 
 Found     29 irreducible k-points:
 
 Following reciprocal coordinates:
            Coordinates               Weight
  0.000000  0.000000  0.000000      1.000000
  0.125000  0.000000  0.000000      8.000000
  0.250000  0.000000  0.000000      8.000000
  0.375000  0.000000  0.000000      8.000000
  0.500000  0.000000  0.000000      4.000000
  0.125000  0.125000  0.000000      6.000000
  0.250000  0.125000  0.000000     24.000000
  0.375000  0.125000  0.000000     24.000000
  0.500000  0.125000  0.000000     24.000000
 -0.375000  0.125000  0.000000     24.000000
 -0.250000  0.125000  0.000000     24.000000
 -0.125000  0.125000  0.000000     12.000000
  0.250000  0.250000  0.000000      6.000000
  0.375000  0.250000  0.000000     24.000000
  0.500000  0.250000  0.000000     24.000000
 -0.375000  0.250000  0.000000     24.000000
 -0.250000  0.250000  0.000000     12.000000
  0.375000  0.375000  0.000000      6.000000
  0.500000  0.375000  0.000000     24.000000
 -0.375000  0.375000  0.000000     12.000000
  0.500000  0.500000  0.000000      3.000000
  0.375000  0.250000  0.125000     24.000000
  0.500000  0.250000  0.125000     48.000000
 -0.375000  0.250000  0.125000     24.000000
  0.500000  0.375000  0.125000     24.000000
 -0.375000  0.375000  0.125000     48.000000
 -0.250000  0.375000  0.125000     24.000000
 -0.375000  0.500000  0.125000     12.000000
 -0.250000  0.500000  0.250000      6.000000
 
 Following cartesian coordinates:
            Coordinates               Weight
  0.000000  0.000000  0.000000      1.000000
 -0.015697  0.015697  0.015697      8.000000
 -0.031395  0.031395  0.031395      8.000000
 -0.047092  0.047092  0.047092      8.000000
 -0.062789  0.062789  0.062789      4.000000
  0.000000  0.000000  0.031395      6.000000
 -0.015697  0.015697  0.047092     24.000000
 -0.031395  0.031395  0.062789     24.000000
 -0.047092  0.047092  0.078486     24.000000
  0.062789 -0.062789 -0.031395     24.000000
  0.047092 -0.047092 -0.015697     24.000000
  0.031395 -0.031395  0.000000     12.000000
  0.000000  0.000000  0.062789      6.000000
 -0.015697  0.015697  0.078486     24.000000
 -0.031395  0.031395  0.094184     24.000000
  0.078486 -0.078486 -0.015697     24.000000
  0.062789 -0.062789  0.000000     12.000000
  0.000000  0.000000  0.094184      6.000000
 -0.015697  0.015697  0.109881     24.000000
  0.094184 -0.094184  0.000000     12.000000
  0.000000  0.000000  0.125578      3.000000
 -0.000000  0.031395  0.062789     24.000000
 -0.015697  0.047092  0.078486     48.000000
  0.094184 -0.062789 -0.031395     24.000000
  0.000000  0.031395  0.094184     24.000000
  0.109881 -0.078486 -0.015697     48.000000
  0.094184 -0.062789  0.000000     24.000000
  0.125578 -0.094184 -0.000000     12.000000
  0.125578 -0.062789  0.000000      6.000000
 


--------------------------------------------------------------------------------------------------------




 Dimension of arrays:
   k-points           NKPTS =     29   k-points in BZ     NKDIM =     29   number of bands    NBANDS=     23
   number of dos      NEDOS =    301   number of ions     NIONS =      4
   non local maximal  LDIM  =      6   non local SUM 2l+1 LMDIM =     18
   total plane-waves  NPLWV =  74088
   max r-space proj   IRMAX =      1   max aug-charges    IRDMAX=  27513
   dimension x,y,z NGX =    42 NGY =   42 NGZ =   42
   dimension x,y,z NGXF=    84 NGYF=   84 NGZF=   84
   support grid    NGXF=    84 NGYF=   84 NGZF=   84
   ions per type =               1   1   2
   NGX,Y,Z   is equivalent  to a cutoff of  12.40, 12.40, 12.40 a.u.
   NGXF,Y,Z  is equivalent  to a cutoff of  24.80, 24.80, 24.80 a.u.

 SYSTEM =  unknown system                          
 POSCAR =  Na K Bi                                 

 Startparameter for this run:
   NWRITE =      2    write-flag & timer
   PREC   = acc       normal or accurate (medium, high low for compatibility)
   ISTART =      0    job   : 0-new  1-cont  2-samecut
   ICHARG =      2    charge: 1-file 2-atom 10-const
   ISPIN  =      1    spin polarized calculation?
   LNONCOLLINEAR =      F non collinear calculations
   LSORBIT =      F    spin-orbit coupling
   INIWAV =      1    electr: 0-lowe 1-rand  2-diag
   LASPH  =      F    aspherical Exc in radial PAW
   METAGGA=      F    non-selfconsistent MetaGGA calc.

 Electronic Relaxation 1
   ENCUT  =  520.0 eV  38.22 Ry    6.18 a.u.  10.47 10.47 10.47*2*pi/ulx,y,z
   ENINI  =  520.0     initial cutoff
   ENAUG  =  442.9 eV  augmentation charge cutoff
   NELM   =    150;   NELMIN=  5; NELMDL= -5     # of ELM steps 
   EDIFF  = 0.1E-07   stopping-criterion for ELM
   LREAL  =      F    real-space projection
   NLSPLINE    = F    spline interpolate recip. space projectors
   LCOMPAT=      F    compatible to vasp.4.4
   GGA_COMPAT  = T    GGA compatible to vasp.4.4-vasp.4.6
   LMAXPAW     = -100 max onsite density
   LMAXMIX     =    2 max onsite mixed and CHGCAR
   VOSKOWN=      0    Vosko Wilk Nusair interpolation
   ROPT   =    0.00000   0.00000   0.00000
 Ionic relaxation
   EDIFFG = 0.1E-06   stopping-criterion for IOM
   NSW    =      0    number of steps for IOM
   NBLOCK =      1;   KBLOCK =      1    inner block; outer block 
   IBRION =     -1    ionic relax: 0-MD 1-quasi-New 2-CG
   NFREE  =      0    steps in history (QN), initial steepest desc. (CG)
   ISIF   =      3    stress and relaxation
   IWAVPR =     10    prediction:  0-non 1-charg 2-wave 3-comb
   ISYM   =      2    0-nonsym 1-usesym 2-fastsym
   LCORR  =      T    Harris-Foulkes like correction to forces

   POTIM  = 0.5000    time-step for ionic-motion
   TEIN   =    0.0    initial temperature
   TEBEG  =    0.0;   TEEND  =   0.0 temperature during run
   SMASS  =  -3.00    Nose mass-parameter (am)
   estimated Nose-frequenzy (Omega)   =  0.10E-29 period in steps =****** mass=  -0.725E-27a.u.
   SCALEE = 1.0000    scale energy and forces
   NPACO  =    256;   APACO  = 16.0  distance and # of slots for P.C.
   PSTRESS=    0.0 pullay stress

  Mass of Ions in am
   POMASS = 208.98 39.10 22.99
  Ionic Valenz
   ZVAL   =  15.00  9.00  7.00
  Atomic Wigner-Seitz radii
   RWIGS  =  -1.00 -1.00 -1.00
  virtual crystal weights 
   VCA    =   1.00  1.00  1.00
   NELECT =      38.0000    total number of electrons
   NUPDOWN=      -1.0000    fix difference up-down

 DOS related values:
   EMIN   =  10.00;   EMAX   =-10.00  energy-range for DOS
   EFERMI =   0.00
   ISMEAR =     0;   SIGMA  =   0.05  broadening in eV -4-tet -1-fermi 0-gaus

 Electronic relaxation 2 (details)
   IALGO  =     38    algorithm
   LDIAG  =      T    sub-space diagonalisation (order eigenvalues)
   LSUBROT=      F    optimize rotation matrix (better conditioning)
   TURBO    =      0    0=normal 1=particle mesh
   IRESTART =      0    0=no restart 2=restart with 2 vectors
   NREBOOT  =      0    no. of reboots
   NMIN     =      0    reboot dimension
   EREF     =   0.00    reference energy to select bands
   IMIX   =      4    mixing-type and parameters
     AMIX     =   0.40;   BMIX     =  1.00
     AMIX_MAG =   1.60;   BMIX_MAG =  1.00
     AMIN     =   0.10
     WC   =   100.;   INIMIX=   1;  MIXPRE=   1;  MAXMIX= -45

 Intra band minimization:
   WEIMIN = 0.0000     energy-eigenvalue tresh-hold
   EBREAK =  0.11E-09  absolut break condition
   DEPER  =   0.30     relativ break condition  

   TIME   =   0.40     timestep for ELM

  volume/ion in A,a.u.               =      31.56       212.98
  Fermi-wavevector in a.u.,A,eV,Ry     =   1.097159  2.073330 16.378124  1.203758
  Thomas-Fermi vector in A             =   2.233514
 
 Write flags
   LWAVE        =      F    write WAVECAR
   LDOWNSAMPLE  =      F    k-point downsampling of WAVECAR
   LCHARG       =      F    write CHGCAR
   LVTOT        =      F    write LOCPOT, total local potential
   LVHAR        =      F    write LOCPOT, Hartree potential only
   LELF         =      F    write electronic localiz. function (ELF)
   LORBIT       =      0    0 simple, 1 ext, 2 COOP (PROOUT), +10 PAW based schemes


 Dipole corrections
   LMONO  =      F    monopole corrections only (constant potential shift)
   LDIPOL =      F    correct potential (dipole corrections)
   IDIPOL =      0    1-x, 2-y, 3-z, 4-all directions 
   EPSILON=  1.0000000 bulk dielectric constant

 Exchange correlation treatment:
   GGA     =    PE    GGA type
   LEXCH   =     8    internal setting for exchange type
   VOSKOWN=      0    Vosko Wilk Nusair interpolation
   LHFCALC =     F    Hartree Fock is set to
   LHFONE  =     F    Hartree Fock one center treatment
   AEXX    =    0.0000 exact exchange contribution

 Linear response parameters
   LEPSILON=     F    determine dielectric tensor
   LRPA    =     F    only Hartree local field effects (RPA)
   LNABLA  =     F    use nabla operator in PAW spheres
   LVEL    =     F    velocity operator in full k-point grid
   LINTERFAST=   F  fast interpolation
   KINTER  =     0    interpolate to denser k-point grid
   CSHIFT  =0.1000    complex shift for real part using Kramers Kronig
   OMEGAMAX=  -1.0    maximum frequency
   DEG_THRESHOLD= 0.2000000E-02 threshold for treating states as degnerate
   RTIME   =   -0.100 relaxation time in fs
  (WPLASMAI=    0.000 imaginary part of plasma frequency in eV, 0.658/RTIME)
   DFIELD  = 0.0000000 0.0000000 0.0000000 field for delta impulse in time
 
 Orbital magnetization related:
   ORBITALMAG=     F  switch on orbital magnetization
   LCHIMAG   =     F  perturbation theory with respect to B field
   DQ        =  0.001000  dq finite difference perturbation B field
   LLRAUG    =     F  two centre corrections for induced B field



--------------------------------------------------------------------------------------------------------


 Static calculation
 charge density and potential will be updated during run
 non-spin polarized calculation
 Variant of blocked Davidson
 Davidson routine will perform the subspace rotation
 perform sub-space diagonalisation
    after iterative eigenvector-optimisation
 modified Broyden-mixing scheme, WC =      100.0
 initial mixing is a Kerker type mixing with AMIX =  0.4000 and BMIX =      1.0000
 Hartree-type preconditioning will be used
 using additional bands            4
 reciprocal scheme for non local part
 use partial core corrections
 calculate Harris-corrections to forces 
   (improved forces if not selfconsistent)
 use gradient corrections 
 use of overlap-Matrix (Vanderbilt PP)
 Gauss-broadening in eV      SIGMA  =   0.05


--------------------------------------------------------------------------------------------------------


  energy-cutoff  :      520.00
  volume of cell :      126.24
      direct lattice vectors                 reciprocal lattice vectors
     0.000000000  3.981588847  3.981588847    -0.125578009  0.125578009  0.125578009
     3.981588847  0.000000000  3.981588847     0.125578009 -0.125578009  0.125578009
     3.981588847  3.981588847  0.000000000     0.125578009  0.125578009 -0.125578009

  length of vectors
     5.630816947  5.630816947  5.630816947     0.217507492  0.217507492  0.217507492


 
 k-points in units of 2pi/SCALE and weight: KPOINTS                                 
   0.00000000  0.00000000  0.00000000       0.002
  -0.01569725  0.01569725  0.01569725       0.016
  -0.03139450  0.03139450  0.03139450       0.016
  -0.04709175  0.04709175  0.04709175       0.016
  -0.06278900  0.06278900  0.06278900       0.008
   0.00000000  0.00000000  0.03139450       0.012
  -0.01569725  0.01569725  0.04709175       0.047
  -0.03139450  0.03139450  0.06278900       0.047
  -0.04709175  0.04709175  0.07848626       0.047
   0.06278900 -0.06278900 -0.03139450       0.047
   0.04709175 -0.04709175 -0.01569725       0.047
   0.03139450 -0.03139450  0.00000000       0.023
   0.00000000  0.00000000  0.06278900       0.012
  -0.01569725  0.01569725  0.07848626       0.047
  -0.03139450  0.03139450  0.09418351       0.047
   0.07848626 -0.07848626 -0.01569725       0.047
   0.06278900 -0.06278900  0.00000000       0.023
   0.00000000  0.00000000  0.09418351       0.012
  -0.01569725  0.01569725  0.10988076       0.047
   0.09418351 -0.09418351  0.00000000       0.023
   0.00000000  0.00000000  0.12557801       0.006
  -0.00000000  0.03139450  0.06278900       0.047
  -0.01569725  0.04709175  0.07848626       0.094
   0.09418351 -0.06278900 -0.03139450       0.047
   0.00000000  0.03139450  0.09418351       0.047
   0.10988076 -0.07848626 -0.01569725       0.094
   0.09418351 -0.06278900  0.00000000       0.047
   0.12557801 -0.09418351 -0.00000000       0.023
   0.12557801 -0.06278900  0.00000000       0.012
 
 k-points in reciprocal lattice and weights: KPOINTS                                 
   0.00000000  0.00000000  0.00000000       0.002
   0.12500000  0.00000000  0.00000000       0.016
   0.25000000  0.00000000  0.00000000       0.016
   0.37500000  0.00000000  0.00000000       0.016
   0.50000000  0.00000000  0.00000000       0.008
   0.12500000  0.12500000  0.00000000       0.012
   0.25000000  0.12500000  0.00000000       0.047
   0.37500000  0.12500000  0.00000000       0.047
   0.50000000  0.12500000  0.00000000       0.047
  -0.37500000  0.12500000  0.00000000       0.047
  -0.25000000  0.12500000  0.00000000       0.047
  -0.12500000  0.12500000  0.00000000       0.023
   0.25000000  0.25000000  0.00000000       0.012
   0.37500000  0.25000000  0.00000000       0.047
   0.50000000  0.25000000  0.00000000       0.047
  -0.37500000  0.25000000  0.00000000       0.047
  -0.25000000  0.25000000  0.00000000       0.023
   0.37500000  0.37500000  0.00000000       0.012
   0.50000000  0.37500000  0.00000000       0.047
  -0.37500000  0.37500000  0.00000000       0.023
   0.50000000  0.50000000  0.00000000       0.006
   0.37500000  0.25000000  0.12500000       0.047
   0.50000000  0.25000000  0.12500000       0.094
  -0.37500000  0.25000000  0.12500000       0.047
   0.50000000  0.37500000  0.12500000       0.047
  -0.37500000  0.37500000  0.12500000       0.094
  -0.25000000  0.37500000  0.12500000       0.047
  -0.37500000  0.50000000  0.12500000       0.023
  -0.25000000  0.50000000  0.25000000       0.012
 
 position of ions in fractional coordinates (direct lattice) 
   0.24999994  0.24999994  0.24999994
   0.74999981  0.74999981  0.74999981
   0.00000000  0.00000000  0.00000000
   0.49999987  0.49999987  0.49999987
 
 position of ions in cartesian coordinates  (Angst):
   1.99079392  1.99079392  1.99079392
   5.97238175  5.97238175  5.97238175
   0.00000000  0.00000000  0.00000000
   3.98158783  3.98158783  3.98158783
 


--------------------------------------------------------------------------------------------------------


 k-point  1 :   0.0000 0.0000 0.0000  plane waves:    3479
 k-point  2 :   0.1250 0.0000 0.0000  plane waves:    3416
 k-point  3 :   0.2500 0.0000 0.0000  plane waves:    3398
 k-point  4 :   0.3750 0.0000 0.0000  plane waves:    3410
 k-point  5 :   0.5000 0.0000 0.0000  plane waves:    3426
 k-point  6 :   0.1250 0.1250 0.0000  plane waves:    3419
 k-point  7 :   0.2500 0.1250 0.0000  plane waves:    3415
 k-point  8 :   0.3750 0.1250 0.0000  plane waves:    3396
 k-point  9 :   0.5000 0.1250 0.0000  plane waves:    3393
 k-point 10 :  -0.3750 0.1250 0.0000  plane waves:    3401
 k-point 11 :  -0.2500 0.1250 0.0000  plane waves:    3405
 k-point 12 :  -0.1250 0.1250 0.0000  plane waves:    3435
 k-point 13 :   0.2500 0.2500 0.0000  plane waves:    3399
 k-point 14 :   0.3750 0.2500 0.0000  plane waves:    3412
 k-point 15 :   0.5000 0.2500 0.0000  plane waves:    3401
 k-point 16 :  -0.3750 0.2500 0.0000  plane waves:    3398
 k-point 17 :  -0.2500 0.2500 0.0000  plane waves:    3398
 k-point 18 :   0.3750 0.3750 0.0000  plane waves:    3391
 k-point 19 :   0.5000 0.3750 0.0000  plane waves:    3387
 k-point 20 :  -0.3750 0.3750 0.0000  plane waves:    3414
 k-point 21 :   0.5000 0.5000 0.0000  plane waves:    3378
 k-point 22 :   0.3750 0.2500 0.1250  plane waves:    3409
 k-point 23 :   0.5000 0.2500 0.1250  plane waves:    3402
 k-point 24 :  -0.3750 0.2500 0.1250  plane waves:    3390
 k-point 25 :   0.5000 0.3750 0.1250  plane waves:    3395
 k-point 26 :  -0.3750 0.3750 0.1250  plane waves:    3385
 k-point 27 :  -0.2500 0.3750 0.1250  plane waves:    3389
 k-point 28 :  -0.3750 0.5000 0.1250  plane waves:    3382
 k-point 29 :  -0.2500 0.5000 0.2500  plane waves:    3380

 maximum and minimum number of plane-waves per node :       506      470

 maximum number of plane-waves:      3479
 maximum index in each direction: 
   IXMAX=   10   IYMAX=   10   IZMAX=   10
   IXMIN=  -10   IYMIN=  -10   IZMIN=  -10


 parallel 3D FFT for wavefunctions:
    minimum data exchange during FFTs selected (reduces bandwidth)
 parallel 3D FFT for charge:
    minimum data exchange during FFTs selected (reduces bandwidth)


 total amount of memory used by VASP MPI-rank0    51132. kBytes
=======================================================================

   base      :      30000. kBytes
   nonl-proj :       6371. kBytes
   fftplans  :       3211. kBytes
   grid      :       5943. kBytes
   one-center:         15. kBytes
   wavefun   :       5592. kBytes
 
     INWAV:  cpu time    0.0000: real time    0.0000
 Broyden mixing: mesh for mixing (old mesh)
   NGX = 21   NGY = 21   NGZ = 21
  (NGX  = 84   NGY  = 84   NGZ  = 84)
  gives a total of   9261 points

 initial charge density was supplied:
 charge density of overlapping atoms calculated
 number of electron      38.0000000 magnetization 
 keeping initial charge density in first step


--------------------------------------------------------------------------------------------------------


 Maximum index for augmentation-charges         3727 (set IRDMAX)


--------------------------------------------------------------------------------------------------------


 First call to EWALD:  gamma=   0.353
 Maximum number of real-space cells 3x 3x 3
 Maximum number of reciprocal cells 3x 3x 3

    FEWALD:  cpu time    0.0016: real time    0.0016


--------------------------------------- Iteration      1(   1)  ---------------------------------------


    POTLOK:  cpu time    0.0507: real time    0.0550
    SETDIJ:  cpu time    0.0045: real time    0.0045
     EDDAV:  cpu time    0.2717: real time    0.2719
       DOS:  cpu time    0.0006: real time    0.0006
    --------------------------------------------
      LOOP:  cpu time    0.3276: real time    0.3320

 eigenvalue-minimisations  :  1342
 total energy-change (2. order) : 0.3840692E+03  (-0.2001912E+04)
 number of electron      38.0000000 magnetization 
 augmentation part       38.0000000 magnetization 

 Free energy of the ion-electron system (eV)
  ---------------------------------------------------
  alpha Z        PSCENC =       102.11721323
  Ewald energy   TEWEN  =     -2524.56922660
  -Hartree energ DENC   =     -1246.18677078
  -exchange      EXHF   =         0.00000000
  -V(xc)+E(xc)   XCENC  =       133.51261103
  PAW double counting   =      3274.07194199    -3416.58699786
  entropy T*S    EENTRO =        -0.00217390
  eigenvalues    EBANDS =      -204.57720779
  atomic energy  EATOM  =      4266.28978799
  Solvation  Ediel_sol  =         0.00000000
  ---------------------------------------------------
  free energy    TOTEN  =       384.06917730 eV

  energy without entropy =      384.07135120  energy(sigma->0) =      384.07026425


--------------------------------------------------------------------------------------------------------




--------------------------------------- Iteration      1(   2)  ---------------------------------------


     EDDAV:  cpu time    0.2780: real time    0.2800
       DOS:  cpu time    0.0005: real time    0.0005
    --------------------------------------------
      LOOP:  cpu time    0.2786: real time    0.2805

 eigenvalue-minimisations  :  1348
 total energy-change (2. order) :-0.3601245E+03  (-0.3569145E+03)
 number of electron      38.0000000 magnetization 
 augmentation part       38.0000000 magnetization 

 Free energy of the ion-electron system (eV)
  ---------------------------------------------------
  alpha Z        PSCENC =       102.11721323
  Ewald energy   TEWEN  =     -2524.56922660
  -Hartree energ DENC   =     -1246.18677078
  -exchange      EXHF   =         0.00000000
  -V(xc)+E(xc)   XCENC  =       133.51261103
  PAW double counting   =      3274.07194199    -3416.58699786
  entropy T*S    EENTRO =        -0.00065248
  eigenvalues    EBANDS =      -564.70322990
  atomic energy  EATOM  =      4266.28978799
  Solvation  Ediel_sol  =         0.00000000
  ---------------------------------------------------
  free energy    TOTEN  =        23.94467662 eV

  energy without entropy =       23.94532910  energy(sigma->0) =       23.94500286


--------------------------------------------------------------------------------------------------------




--------------------------------------- Iteration      1(   3)  ---------------------------------------


     EDDAV:  cpu time    0.3615: real time    0.3617
       DOS:  cpu time    0.0003: real time    0.0003
    --------------------------------------------
      LOOP:  cpu time    0.3617: real time    0.3620

 eigenvalue-minimisations  :  2085
 total energy-change (2. order) :-0.3258008E+02  (-0.3251580E+02)
 number of electron      38.0000000 magnetization 
 augmentation part       38.0000000 magnetization 

 Free energy of the ion-electron system (eV)
  ---------------------------------------------------
  alpha Z        PSCENC =       102.11721323
  Ewald energy   TEWEN  =     -2524.56922660
  -Hartree energ DENC   =     -1246.18677078
  -exchange      EXHF   =         0.00000000
  -V(xc)+E(xc)   XCENC  =       133.51261103
  PAW double counting   =      3274.07194199    -3416.58699786
  entropy T*S    EENTRO =        -0.00000000
  eigenvalues    EBANDS =      -597.28396097
  atomic energy  EATOM  =      4266.28978799
  Solvation  Ediel_sol  =         0.00000000
  ---------------------------------------------------
  free energy    TOTEN  =        -8.63540198 eV

  energy without entropy =       -8.63540198  energy(sigma->0) =       -8.63540198


--------------------------------------------------------------------------------------------------------




--------------------------------------- Iteration      1(   4)  ---------------------------------------


     EDDAV:  cpu time    0.3460: real time    0.3476
       DOS:  cpu time    0.0004: real time    0.0004
    --------------------------------------------
      LOOP:  cpu time    0.3464: real time    0.3479

 eigenvalue-minimisations  :  1865
 total energy-change (2. order) :-0.8995202E+00  (-0.8991411E+00)
 number of electron      38.0000000 magnetization 
 augmentation part       38.0000000 magnetization 

 Free energy of the ion-electron system (eV)
  ---------------------------------------------------
  alpha Z        PSCENC =       102.11721323
  Ewald energy   TEWEN  =     -2524.56922660
  -Hartree energ DENC   =     -1246.18677078
  -exchange      EXHF   =         0.00000000
  -V(xc)+E(xc)   XCENC  =       133.51261103
  PAW double counting   =      3274.07194199    -3416.58699786
  entropy T*S    EENTRO =        -0.00000000
  eigenvalues    EBANDS =      -598.18348121
  atomic energy  EATOM  =      4266.28978799
  Solvation  Ediel_sol  =         0.00000000
  ---------------------------------------------------
  free energy    TOTEN  =        -9.53492221 eV

  energy without entropy =       -9.53492221  energy(sigma->0) =       -9.53492221


--------------------------------------------------------------------------------------------------------




--------------------------------------- Iteration      1(   5)  ---------------------------------------


     EDDAV:  cpu time    0.3937: real time    0.3948
       DOS:  cpu time    0.0003: real time    0.0003
    CHARGE:  cpu time    0.0386: real time    0.0386
    MIXING:  cpu time    0.0029: real time    0.0030
    --------------------------------------------
      LOOP:  cpu time    0.4355: real time    0.4367

 eigenvalue-minimisations  :  2208
 total energy-change (2. order) :-0.3284205E-01  (-0.3284075E-01)
 number of electron      37.9999981 magnetization 
 augmentation part       16.1534723 magnetization 

 Broyden mixing:
  rms(total) = 0.37096E+00    rms(broyden)= 0.37096E+00
  rms(prec ) = 0.82272E+00
  weight for this iteration     100.00

 Free energy of the ion-electron system (eV)
  ---------------------------------------------------
  alpha Z        PSCENC =       102.11721323
  Ewald energy   TEWEN  =     -2524.56922660
  -Hartree energ DENC   =     -1246.18677078
  -exchange      EXHF   =         0.00000000
  -V(xc)+E(xc)   XCENC  =       133.51261103
  PAW double counting   =      3274.07194199    -3416.58699786
  entropy T*S    EENTRO =        -0.00000000
  eigenvalues    EBANDS =      -598.21632326
  atomic energy  EATOM  =      4266.28978799
  Solvation  Ediel_sol  =         0.00000000
  ---------------------------------------------------
  free energy    TOTEN  =        -9.56776426 eV

  energy without entropy =       -9.56776426  energy(sigma->0) =       -9.56776426


--------------------------------------------------------------------------------------------------------




--------------------------------------- Iteration      1(   6)  ---------------------------------------


    POTLOK:  cpu time    0.0535: real time    0.0538
    SETDIJ:  cpu time    0.0043: real time    0.0043
     EDDAV:  cpu time    0.3691: real time    0.3691
       DOS:  cpu time    0.0005: real time    0.0005
    CHARGE:  cpu time    0.0372: real time    0.0372
    MIXING:  cpu time    0.0033: real time    0.0033
    --------------------------------------------
      LOOP:  cpu time    0.4678: real time    0.4682

 eigenvalue-minimisations  :  1996
 total energy-change (2. order) : 0.3477786E+00  (-0.7294770E-01)
 number of electron      37.9999981 magnetization 
 augmentation part       16.2000139 magnetization 

 Broyden mixing:
  rms(total) = 0.27612E+00    rms(broyden)= 0.27612E+00
  rms(prec ) = 0.44000E+00
  weight for this iteration     100.00

 eigenvalues of (default mixing * dielectric matrix)
  average eigenvalue GAMMA=   2.0855
  2.0855

 Free energy of the ion-electron system (eV)
  ---------------------------------------------------
  alpha Z        PSCENC =       102.11721323
  Ewald energy   TEWEN  =     -2524.56922660
  -Hartree energ DENC   =     -1245.61078019
  -exchange      EXHF   =         0.00000000
  -V(xc)+E(xc)   XCENC  =       133.49485241
  PAW double counting   =      3336.57987147    -3481.46371029
  entropy T*S    EENTRO =        -0.00007762
  eigenvalues    EBANDS =      -596.05791604
  atomic energy  EATOM  =      4266.28978799
  Solvation  Ediel_sol  =         0.00000000
  ---------------------------------------------------
  free energy    TOTEN  =        -9.21998564 eV

  energy without entropy =       -9.21990802  energy(sigma->0) =       -9.21994683


--------------------------------------------------------------------------------------------------------




--------------------------------------- Iteration      1(   7)  ---------------------------------------


    POTLOK:  cpu time    0.0493: real time    0.0497
    SETDIJ:  cpu time    0.0052: real time    0.0052
     EDDAV:  cpu time    0.3283: real time    0.3285
       DOS:  cpu time    0.0005: real time    0.0005
    CHARGE:  cpu time    0.0371: real time    0.0371
    MIXING:  cpu time    0.0034: real time    0.0034
    --------------------------------------------
      LOOP:  cpu time    0.4239: real time    0.4244

 eigenvalue-minimisations  :  1766
 total energy-change (2. order) : 0.7547427E-01  (-0.3727212E-01)
 number of electron      37.9999981 magnetization 
 augmentation part       16.2404235 magnetization 

 Broyden mixing:
  rms(total) = 0.14048E+00    rms(broyden)= 0.14048E+00
  rms(prec ) = 0.16680E+00
  weight for this iteration     100.00

 eigenvalues of (default mixing * dielectric matrix)
  average eigenvalue GAMMA=   2.0668
  1.8995  2.2341

 Free energy of the ion-electron system (eV)
  ---------------------------------------------------
  alpha Z        PSCENC =       102.11721323
  Ewald energy   TEWEN  =     -2524.56922660
  -Hartree energ DENC   =     -1242.74734045
  -exchange      EXHF   =         0.00000000
  -V(xc)+E(xc)   XCENC  =       133.44160992
  PAW double counting   =      3376.95858191    -3523.38670054
  entropy T*S    EENTRO =        -0.00015867
  eigenvalues    EBANDS =      -597.24827815
  atomic energy  EATOM  =      4266.28978799
  Solvation  Ediel_sol  =         0.00000000
  ---------------------------------------------------
  free energy    TOTEN  =        -9.14451136 eV

  energy without entropy =       -9.14435269  energy(sigma->0) =       -9.14443203


--------------------------------------------------------------------------------------------------------




--------------------------------------- Iteration      1(   8)  ---------------------------------------


    POTLOK:  cpu time    0.0492: real time    0.0501
    SETDIJ:  cpu time    0.0049: real time    0.0049
     EDDAV:  cpu time    0.3303: real time    0.3303
       DOS:  cpu time    0.0005: real time    0.0005
    CHARGE:  cpu time    0.0369: real time    0.0369
    MIXING:  cpu time    0.0027: real time    0.0027
    --------------------------------------------
      LOOP:  cpu time    0.4245: real time    0.4255

 eigenvalue-minimisations  :  1695
 total energy-change (2. order) :-0.2361186E-02  (-0.4220146E-02)
 number of electron      37.9999981 magnetization 
 augmentation part       16.2354633 magnetization 

 Broyden mixing:
  rms(total) = 0.17266E-01    rms(broyden)= 0.17266E-01
  rms(prec ) = 0.33388E-01
  weight for this iteration     100.00

 eigenvalues of (default mixing * dielectric matrix)
  average eigenvalue GAMMA=   1.7857
  1.2937  2.0318  2.0318

 Free energy of the ion-electron system (eV)
  ---------------------------------------------------
  alpha Z        PSCENC =       102.11721323
  Ewald energy   TEWEN  =     -2524.56922660
  -Hartree energ DENC   =     -1240.27581278
  -exchange      EXHF   =         0.00000000
  -V(xc)+E(xc)   XCENC  =       133.40504092
  PAW double counting   =      3373.56932274    -3519.55696966
  entropy T*S    EENTRO =        -0.00015904
  eigenvalues    EBANDS =      -600.12606935
  atomic energy  EATOM  =      4266.28978799
  Solvation  Ediel_sol  =         0.00000000
  ---------------------------------------------------
  free energy    TOTEN  =        -9.14687255 eV

  energy without entropy =       -9.14671351  energy(sigma->0) =       -9.14679303


--------------------------------------------------------------------------------------------------------




--------------------------------------- Iteration      1(   9)  ---------------------------------------


    POTLOK:  cpu time    0.0491: real time    0.0494
    SETDIJ:  cpu time    0.0046: real time    0.0047
     EDDAV:  cpu time    0.3338: real time    0.3350
       DOS:  cpu time    0.0006: real time    0.0006
    CHARGE:  cpu time    0.0383: real time    0.0383
    MIXING:  cpu time    0.0029: real time    0.0029
    --------------------------------------------
      LOOP:  cpu time    0.4294: real time    0.4309

 eigenvalue-minimisations  :  1672
 total energy-change (2. order) : 0.2505357E-03  (-0.4949289E-03)
 number of electron      37.9999981 magnetization 
 augmentation part       16.2348885 magnetization 

 Broyden mixing:
  rms(total) = 0.89678E-02    rms(broyden)= 0.89678E-02
  rms(prec ) = 0.15971E-01
  weight for this iteration     100.00

 eigenvalues of (default mixing * dielectric matrix)
  average eigenvalue GAMMA=   1.8490
  2.6750  2.1865  1.2673  1.2673

 Free energy of the ion-electron system (eV)
  ---------------------------------------------------
  alpha Z        PSCENC =       102.11721323
  Ewald energy   TEWEN  =     -2524.56922660
  -Hartree energ DENC   =     -1240.97078084
  -exchange      EXHF   =         0.00000000
  -V(xc)+E(xc)   XCENC  =       133.43355353
  PAW double counting   =      3379.07922262    -3524.92271757
  entropy T*S    EENTRO =        -0.00015849
  eigenvalues    EBANDS =      -599.60351589
  atomic energy  EATOM  =      4266.28978799
  Solvation  Ediel_sol  =         0.00000000
  ---------------------------------------------------
  free energy    TOTEN  =        -9.14662201 eV

  energy without entropy =       -9.14646353  energy(sigma->0) =       -9.14654277


--------------------------------------------------------------------------------------------------------




--------------------------------------- Iteration      1(  10)  ---------------------------------------


    POTLOK:  cpu time    0.0514: real time    0.0524
    SETDIJ:  cpu time    0.0041: real time    0.0041
     EDDAV:  cpu time    0.3455: real time    0.3459
       DOS:  cpu time    0.0005: real time    0.0005
    CHARGE:  cpu time    0.0366: real time    0.0366
    MIXING:  cpu time    0.0028: real time    0.0028
    --------------------------------------------
      LOOP:  cpu time    0.4410: real time    0.4425

 eigenvalue-minimisations  :  1852
 total energy-change (2. order) :-0.6575632E-04  (-0.7176157E-04)
 number of electron      37.9999981 magnetization 
 augmentation part       16.2335956 magnetization 

 Broyden mixing:
  rms(total) = 0.43964E-02    rms(broyden)= 0.43964E-02
  rms(prec ) = 0.57542E-02
  weight for this iteration     100.00

 eigenvalues of (default mixing * dielectric matrix)
  average eigenvalue GAMMA=   1.8364
  2.5391  2.1523  2.1523  1.0100  1.3283

 Free energy of the ion-electron system (eV)
  ---------------------------------------------------
  alpha Z        PSCENC =       102.11721323
  Ewald energy   TEWEN  =     -2524.56922660
  -Hartree energ DENC   =     -1240.91732375
  -exchange      EXHF   =         0.00000000
  -V(xc)+E(xc)   XCENC  =       133.43817529
  PAW double counting   =      3379.30533514    -3524.95880084
  entropy T*S    EENTRO =        -0.00015872
  eigenvalues    EBANDS =      -599.85168950
  atomic energy  EATOM  =      4266.28978799
  Solvation  Ediel_sol  =         0.00000000
  ---------------------------------------------------
  free energy    TOTEN  =        -9.14668777 eV

  energy without entropy =       -9.14652905  energy(sigma->0) =       -9.14660841


--------------------------------------------------------------------------------------------------------




--------------------------------------- Iteration      1(  11)  ---------------------------------------


    POTLOK:  cpu time    0.0489: real time    0.0493
    SETDIJ:  cpu time    0.0049: real time    0.0049
     EDDAV:  cpu time    0.3561: real time    0.3564
       DOS:  cpu time    0.0005: real time    0.0005
    CHARGE:  cpu time    0.0372: real time    0.0372
    MIXING:  cpu time    0.0035: real time    0.0035
    --------------------------------------------
      LOOP:  cpu time    0.4511: real time    0.4518

 eigenvalue-minimisations  :  1796
 total energy-change (2. order) :-0.7292801E-06  (-0.4102294E-05)
 number of electron      37.9999981 magnetization 
 augmentation part       16.2340189 magnetization 

 Broyden mixing:
  rms(total) = 0.78949E-03    rms(broyden)= 0.78949E-03
  rms(prec ) = 0.14087E-02
  weight for this iteration     100.00

 eigenvalues of (default mixing * dielectric matrix)
  average eigenvalue GAMMA=   1.7640
  2.8310  2.2990  1.8675  1.1327  1.1327  1.3214

 Free energy of the ion-electron system (eV)
  ---------------------------------------------------
  alpha Z        PSCENC =       102.11721323
  Ewald energy   TEWEN  =     -2524.56922660
  -Hartree energ DENC   =     -1240.88836549
  -exchange      EXHF   =         0.00000000
  -V(xc)+E(xc)   XCENC  =       133.43832840
  PAW double counting   =      3380.89036555    -3526.54674453
  entropy T*S    EENTRO =        -0.00015866
  eigenvalues    EBANDS =      -599.87788839
  atomic energy  EATOM  =      4266.28978799
  Solvation  Ediel_sol  =         0.00000000
  ---------------------------------------------------
  free energy    TOTEN  =        -9.14668850 eV

  energy without entropy =       -9.14652984  energy(sigma->0) =       -9.14660917


--------------------------------------------------------------------------------------------------------




--------------------------------------- Iteration      1(  12)  ---------------------------------------


    POTLOK:  cpu time    0.0496: real time    0.0505
    SETDIJ:  cpu time    0.0049: real time    0.0049
     EDDAV:  cpu time    0.3276: real time    0.3277
       DOS:  cpu time    0.0005: real time    0.0005
    CHARGE:  cpu time    0.0369: real time    0.0370
    MIXING:  cpu time    0.0029: real time    0.0029
    --------------------------------------------
      LOOP:  cpu time    0.4225: real time    0.4235

 eigenvalue-minimisations  :  1705
 total energy-change (2. order) :-0.6046230E-06  (-0.1075238E-05)
 number of electron      37.9999981 magnetization 
 augmentation part       16.2340943 magnetization 

 Broyden mixing:
  rms(total) = 0.21608E-03    rms(broyden)= 0.21608E-03
  rms(prec ) = 0.31936E-03
  weight for this iteration     100.00

 eigenvalues of (default mixing * dielectric matrix)
  average eigenvalue GAMMA=   1.8318
  2.9901  2.5658  1.9963  1.9963  1.2715  1.0013  1.0013

 Free energy of the ion-electron system (eV)
  ---------------------------------------------------
  alpha Z        PSCENC =       102.11721323
  Ewald energy   TEWEN  =     -2524.56922660
  -Hartree energ DENC   =     -1240.91532045
  -exchange      EXHF   =         0.00000000
  -V(xc)+E(xc)   XCENC  =       133.43957835
  PAW double counting   =      3381.06653224    -3526.72065369
  entropy T*S    EENTRO =        -0.00015863
  eigenvalues    EBANDS =      -599.85444153
  atomic energy  EATOM  =      4266.28978799
  Solvation  Ediel_sol  =         0.00000000
  ---------------------------------------------------
  free energy    TOTEN  =        -9.14668910 eV

  energy without entropy =       -9.14653047  energy(sigma->0) =       -9.14660979


--------------------------------------------------------------------------------------------------------




--------------------------------------- Iteration      1(  13)  ---------------------------------------


    POTLOK:  cpu time    0.0485: real time    0.0489
    SETDIJ:  cpu time    0.0051: real time    0.0051
     EDDAV:  cpu time    0.3921: real time    0.3922
       DOS:  cpu time    0.0005: real time    0.0005
    CHARGE:  cpu time    0.0366: real time    0.0366
    MIXING:  cpu time    0.0029: real time    0.0029
    --------------------------------------------
      LOOP:  cpu time    0.4857: real time    0.4862

 eigenvalue-minimisations  :  2101
 total energy-change (2. order) :-0.1677690E-06  (-0.4595226E-07)
 number of electron      37.9999981 magnetization 
 augmentation part       16.2341190 magnetization 

 Broyden mixing:
  rms(total) = 0.61653E-04    rms(broyden)= 0.61652E-04
  rms(prec ) = 0.11149E-03
  weight for this iteration     100.00

 eigenvalues of (default mixing * dielectric matrix)
  average eigenvalue GAMMA=   1.8299
  3.0810  2.6088  2.3005  1.9597  1.4277  0.9854  1.1380  1.1380

 Free energy of the ion-electron system (eV)
  ---------------------------------------------------
  alpha Z        PSCENC =       102.11721323
  Ewald energy   TEWEN  =     -2524.56922660
  -Hartree energ DENC   =     -1240.91127568
  -exchange      EXHF   =         0.00000000
  -V(xc)+E(xc)   XCENC  =       133.43953177
  PAW double counting   =      3381.04078328    -3526.69759691
  entropy T*S    EENTRO =        -0.00015863
  eigenvalues    EBANDS =      -599.85574772
  atomic energy  EATOM  =      4266.28978799
  Solvation  Ediel_sol  =         0.00000000
  ---------------------------------------------------
  free energy    TOTEN  =        -9.14668927 eV

  energy without entropy =       -9.14653064  energy(sigma->0) =       -9.14660996


--------------------------------------------------------------------------------------------------------




--------------------------------------- Iteration      1(  14)  ---------------------------------------


    POTLOK:  cpu time    0.0500: real time    0.0504
    SETDIJ:  cpu time    0.0038: real time    0.0038
     EDDAV:  cpu time    0.2930: real time    0.2930
       DOS:  cpu time    0.0005: real time    0.0005
    CHARGE:  cpu time    0.0367: real time    0.0367
    MIXING:  cpu time    0.0031: real time    0.0031
    --------------------------------------------
      LOOP:  cpu time    0.3871: real time    0.3875

 eigenvalue-minimisations  :  1461
 total energy-change (2. order) : 0.4510366E-07  (-0.3836183E-08)
 number of electron      37.9999981 magnetization 
 augmentation part       16.2341243 magnetization 

 Broyden mixing:
  rms(total) = 0.22005E-04    rms(broyden)= 0.22005E-04
  rms(prec ) = 0.31726E-04
  weight for this iteration     100.00

 eigenvalues of (default mixing * dielectric matrix)
  average eigenvalue GAMMA=   1.7667
  3.0801  2.5562  2.3772  1.9907  1.7125  1.1903  1.0962  0.9749  0.9223

 Free energy of the ion-electron system (eV)
  ---------------------------------------------------
  alpha Z        PSCENC =       102.11721323
  Ewald energy   TEWEN  =     -2524.56922660
  -Hartree energ DENC   =     -1240.90861701
  -exchange      EXHF   =         0.00000000
  -V(xc)+E(xc)   XCENC  =       133.43941818
  PAW double counting   =      3381.03282400    -3526.68985141
  entropy T*S    EENTRO =        -0.00015863
  eigenvalues    EBANDS =      -599.85807897
  atomic energy  EATOM  =      4266.28978799
  Solvation  Ediel_sol  =         0.00000000
  ---------------------------------------------------
  free energy    TOTEN  =        -9.14668923 eV

  energy without entropy =       -9.14653059  energy(sigma->0) =       -9.14660991


--------------------------------------------------------------------------------------------------------




--------------------------------------- Iteration      1(  15)  ---------------------------------------


    POTLOK:  cpu time    0.0485: real time    0.0489
    SETDIJ:  cpu time    0.0054: real time    0.0054
     EDDAV:  cpu time    0.2654: real time    0.2656
       DOS:  cpu time    0.0005: real time    0.0005
    --------------------------------------------
      LOOP:  cpu time    0.3198: real time    0.3203

 eigenvalue-minimisations  :  1136
 total energy-change (2. order) :-0.4565663E-09  (-0.2807268E-09)
 number of electron      37.9999981 magnetization 
 augmentation part       16.2341243 magnetization 

 Free energy of the ion-electron system (eV)
  ---------------------------------------------------
  alpha Z        PSCENC =       102.11721323
  Ewald energy   TEWEN  =     -2524.56922660
  -Hartree energ DENC   =     -1240.90833772
  -exchange      EXHF   =         0.00000000
  -V(xc)+E(xc)   XCENC  =       133.43940372
  PAW double counting   =      3381.03693792    -3526.69376912
  entropy T*S    EENTRO =        -0.00015863
  eigenvalues    EBANDS =      -599.85854001
  atomic energy  EATOM  =      4266.28978799
  Solvation  Ediel_sol  =         0.00000000
  ---------------------------------------------------
  free energy    TOTEN  =        -9.14668923 eV

  energy without entropy =       -9.14653059  energy(sigma->0) =       -9.14660991


--------------------------------------------------------------------------------------------------------




 average (electrostatic) potential at core
  the test charge radii are     1.0856  1.1045  0.9254
  (the norm of the test charge is              1.0000)
       1-107.3377       2 -36.2923       3 -48.0461       4 -48.0461
 
 
 
 E-fermi :   2.1704     XC(G=0):  -7.9941     alpha+bet : -7.8500


 k-point     1 :       0.0000    0.0000    0.0000
  band No.  band energies     occupation 
      1     -29.0247      2.00000
      2     -22.2492      2.00000
      3     -22.2492      2.00000
      4     -22.2492      2.00000
      5     -22.2407      2.00000
      6     -22.2406      2.00000
      7     -22.2406      2.00000
      8     -19.1369      2.00000
      9     -19.1369      2.00000
     10     -19.1369      2.00000
     11     -19.1338      2.00000
     12     -19.1338      2.00000
     13     -12.5396      2.00000
     14     -12.5396      2.00000
     15     -12.5396      2.00000
     16      -7.3610      2.00000
     17       2.0289      1.99994
     18       2.1545      1.34685
     19       2.1545      1.34676
     20       2.1545      1.34676
     21       4.8191      0.00000
     22       4.8191      0.00000
     23       4.8191      0.00000

 k-point     2 :       0.1250    0.0000    0.0000
  band No.  band energies     occupation 
      1     -29.0247      2.00000
      2     -22.2488      2.00000
      3     -22.2488      2.00000
      4     -22.2488      2.00000
      5     -22.2410      2.00000
      6     -22.2410      2.00000
      7     -22.2410      2.00000
      8     -19.1369      2.00000
      9     -19.1368      2.00000
     10     -19.1368      2.00000
     11     -19.1337      2.00000
     12     -19.1337      2.00000
     13     -12.5423      2.00000
     14     -12.5396      2.00000
     15     -12.5396      2.00000
     16      -7.3344      2.00000
     17       1.2056      2.00000
     18       2.0635      1.99748
     19       2.0636      1.99748
     20       2.9316      0.00000
     21       4.9095      0.00000
     22       4.9752      0.00000
     23       4.9752      0.00000

 k-point     3 :       0.2500    0.0000    0.0000
  band No.  band energies     occupation 
      1     -29.0246      2.00000
      2     -22.2479      2.00000
      3     -22.2479      2.00000
      4     -22.2479      2.00000
      5     -22.2419      2.00000
      6     -22.2419      2.00000
      7     -22.2419      2.00000
      8     -19.1372      2.00000
      9     -19.1367      2.00000
     10     -19.1367      2.00000
     11     -19.1337      2.00000
     12     -19.1337      2.00000
     13     -12.5488      2.00000
     14     -12.5397      2.00000
     15     -12.5397      2.00000
     16      -7.2689      2.00000
     17       0.4732      2.00000
     18       1.8745      2.00000
     19       1.8745      2.00000
     20       3.3651      0.00000
     21       5.3204      0.00000
     22       5.3204      0.00000
     23       5.5098      0.00000

 k-point     4 :       0.3750    0.0000    0.0000
  band No.  band energies     occupation 
      1     -29.0246      2.00000
      2     -22.2466      2.00000
      3     -22.2466      2.00000
      4     -22.2465      2.00000
      5     -22.2433      2.00000
      6     -22.2433      2.00000
      7     -22.2433      2.00000
      8     -19.1374      2.00000
      9     -19.1367      2.00000
     10     -19.1367      2.00000
     11     -19.1338      2.00000
     12     -19.1338      2.00000
     13     -12.5552      2.00000
     14     -12.5398      2.00000
     15     -12.5397      2.00000
     16      -7.2014      2.00000
     17      -0.0106      2.00000
     18       1.7150      2.00000
     19       1.7150      2.00000
     20       3.4657      0.00000
     21       5.6361      0.00000
     22       5.6361      0.00000
     23       6.4158      0.00000

 k-point     5 :       0.5000    0.0000    0.0000
  band No.  band energies     occupation 
      1     -29.0245      2.00000
      2     -22.2453      2.00000
      3     -22.2452      2.00000
      4     -22.2452      2.00000
      5     -22.2447      2.00000
      6     -22.2447      2.00000
      7     -22.2445      2.00000
      8     -19.1375      2.00000
      9     -19.1367      2.00000
     10     -19.1367      2.00000
     11     -19.1338      2.00000
     12     -19.1338      2.00000
     13     -12.5579      2.00000
     14     -12.5398      2.00000
     15     -12.5398      2.00000
     16      -7.1728      2.00000
     17      -0.1802      2.00000
     18       1.6551      2.00000
     19       1.6551      2.00000
     20       3.4875      0.00000
     21       5.7634      0.00000
     22       5.7634      0.00000
     23       6.3760      0.00000

 k-point     6 :       0.1250    0.1250    0.0000
  band No.  band energies     occupation 
      1     -29.0247      2.00000
      2     -22.2493      2.00000
      3     -22.2493      2.00000
      4     -22.2476      2.00000
      5     -22.2421      2.00000
      6     -22.2405      2.00000
      7     -22.2405      2.00000
      8     -19.1370      2.00000
      9     -19.1368      2.00000
     10     -19.1368      2.00000
     11     -19.1338      2.00000
     12     -19.1337      2.00000
     13     -12.5420      2.00000
     14     -12.5402      2.00000
     15     -12.5402      2.00000
     16      -7.3265      2.00000
     17       1.1321      2.00000
     18       1.9859      2.00000
     19       1.9859      2.00000
     20       3.1399      0.00000
     21       4.5208      0.00000
     22       5.2214      0.00000
     23       5.2214      0.00000

 k-point     7 :       0.2500    0.1250    0.0000
  band No.  band energies     occupation 
      1     -29.0246      2.00000
      2     -22.2491      2.00000
      3     -22.2491      2.00000
      4     -22.2460      2.00000
      5     -22.2437      2.00000
      6     -22.2408      2.00000
      7     -22.2408      2.00000
      8     -19.1372      2.00000
      9     -19.1367      2.00000
     10     -19.1367      2.00000
     11     -19.1338      2.00000
     12     -19.1336      2.00000
     13     -12.5467      2.00000
     14     -12.5406      2.00000
     15     -12.5402      2.00000
     16      -7.2763      2.00000
     17       0.6172      2.00000
     18       1.7881      2.00000
     19       1.8180      2.00000
     20       3.6086      0.00000
     21       4.5399      0.00000
     22       5.6218      0.00000
     23       5.6243      0.00000

 k-point     8 :       0.3750    0.1250    0.0000
  band No.  band energies     occupation 
      1     -29.0246      2.00000
      2     -22.2482      2.00000
      3     -22.2482      2.00000
      4     -22.2455      2.00000
      5     -22.2442      2.00000
      6     -22.2416      2.00000
      7     -22.2416      2.00000
      8     -19.1374      2.00000
      9     -19.1367      2.00000
     10     -19.1366      2.00000
     11     -19.1338      2.00000
     12     -19.1336      2.00000
     13     -12.5527      2.00000
     14     -12.5407      2.00000
     15     -12.5406      2.00000
     16      -7.2119      2.00000
     17       0.1600      2.00000
     18       1.5399      2.00000
     19       1.6707      2.00000
     20       3.7851      0.00000
     21       5.0901      0.00000
     22       5.7606      0.00000
     23       5.8908      0.00000

 k-point     9 :       0.5000    0.1250    0.0000
  band No.  band energies     occupation 
      1     -29.0245      2.00000
      2     -22.2473      2.00000
      3     -22.2469      2.00000
      4     -22.2468      2.00000
      5     -22.2430      2.00000
      6     -22.2429      2.00000
      7     -22.2426      2.00000
      8     -19.1374      2.00000
      9     -19.1368      2.00000
     10     -19.1366      2.00000
     11     -19.1338      2.00000
     12     -19.1337      2.00000
     13     -12.5563      2.00000
     14     -12.5413      2.00000
     15     -12.5404      2.00000
     16      -7.1712      2.00000
     17      -0.0718      2.00000
     18       1.3748      2.00000
     19       1.6109      2.00000
     20       3.8650      0.00000
     21       5.2668      0.00000
     22       5.9532      0.00000
     23       6.3125      0.00000

 k-point    10 :      -0.3750    0.1250    0.0000
  band No.  band energies     occupation 
      1     -29.0245      2.00000
      2     -22.2485      2.00000
      3     -22.2453      2.00000
      4     -22.2453      2.00000
      5     -22.2446      2.00000
      6     -22.2445      2.00000
      7     -22.2413      2.00000
      8     -19.1374      2.00000
      9     -19.1368      2.00000
     10     -19.1366      2.00000
     11     -19.1338      2.00000
     12     -19.1337      2.00000
     13     -12.5555      2.00000
     14     -12.5418      2.00000
     15     -12.5398      2.00000
     16      -7.1796      2.00000
     17      -0.0231      2.00000
     18       1.3527      2.00000
     19       1.6615      2.00000
     20       3.8982      0.00000
     21       5.3232      0.00000
     22       5.7680      0.00000
     23       6.4182      0.00000

 k-point    11 :      -0.2500    0.1250    0.0000
  band No.  band energies     occupation 
      1     -29.0246      2.00000
      2     -22.2493      2.00000
      3     -22.2463      2.00000
      4     -22.2462      2.00000
      5     -22.2435      2.00000
      6     -22.2435      2.00000
      7     -22.2405      2.00000
      8     -19.1373      2.00000
      9     -19.1368      2.00000
     10     -19.1367      2.00000
     11     -19.1338      2.00000
     12     -19.1337      2.00000
     13     -12.5509      2.00000
     14     -12.5418      2.00000
     15     -12.5393      2.00000
     16      -7.2318      2.00000
     17       0.2888      2.00000
     18       1.4932      2.00000
     19       1.8065      2.00000
     20       3.8232      0.00000
     21       5.2896      0.00000
     22       5.3966      0.00000
     23       5.6934      0.00000

 k-point    12 :      -0.1250    0.1250    0.0000
  band No.  band energies     occupation 
      1     -29.0247      2.00000
      2     -22.2494      2.00000
      3     -22.2478      2.00000
      4     -22.2477      2.00000
      5     -22.2420      2.00000
      6     -22.2420      2.00000
      7     -22.2404      2.00000
      8     -19.1371      2.00000
      9     -19.1368      2.00000
     10     -19.1368      2.00000
     11     -19.1338      2.00000
     12     -19.1337      2.00000
     13     -12.5454      2.00000
     14     -12.5409      2.00000
     15     -12.5392      2.00000
     16      -7.2958      2.00000
     17       0.7699      2.00000
     18       1.7834      2.00000
     19       1.9797      2.00000
     20       3.4428      0.00000
     21       4.8681      0.00000
     22       5.0606      0.00000
     23       5.5057      0.00000

 k-point    13 :       0.2500    0.2500    0.0000
  band No.  band energies     occupation 
      1     -29.0246      2.00000
      2     -22.2496      2.00000
      3     -22.2496      2.00000
      4     -22.2458      2.00000
      5     -22.2439      2.00000
      6     -22.2403      2.00000
      7     -22.2403      2.00000
      8     -19.1374      2.00000
      9     -19.1366      2.00000
     10     -19.1366      2.00000
     11     -19.1338      2.00000
     12     -19.1335      2.00000
     13     -12.5473      2.00000
     14     -12.5417      2.00000
     15     -12.5417      2.00000
     16      -7.2499      2.00000
     17       0.4948      2.00000
     18       1.6860      2.00000
     19       1.6860      2.00000
     20       3.8538      0.00000
     21       4.0152      0.00000
     22       6.0055      0.00000
     23       6.1861      0.00000

 k-point    14 :       0.3750    0.2500    0.0000
  band No.  band energies     occupation 
      1     -29.0245      2.00000
      2     -22.2494      2.00000
      3     -22.2494      2.00000
      4     -22.2476      2.00000
      5     -22.2420      2.00000
      6     -22.2405      2.00000
      7     -22.2405      2.00000
      8     -19.1376      2.00000
      9     -19.1366      2.00000
     10     -19.1366      2.00000
     11     -19.1338      2.00000
     12     -19.1335      2.00000
     13     -12.5508      2.00000
     14     -12.5426      2.00000
     15     -12.5421      2.00000
     16      -7.2047      2.00000
     17       0.2773      2.00000
     18       1.4095      2.00000
     19       1.5648      2.00000
     20       3.9023      0.00000
     21       4.2626      0.00000
     22       5.7953      0.00000
     23       6.4582      0.00000

 k-point    15 :       0.5000    0.2500    0.0000
  band No.  band energies     occupation 
      1     -29.0245      2.00000
      2     -22.2493      2.00000
      3     -22.2485      2.00000
      4     -22.2484      2.00000
      5     -22.2414      2.00000
      6     -22.2413      2.00000
      7     -22.2406      2.00000
      8     -19.1375      2.00000
      9     -19.1368      2.00000
     10     -19.1365      2.00000
     11     -19.1337      2.00000
     12     -19.1335      2.00000
     13     -12.5531      2.00000
     14     -12.5444      2.00000
     15     -12.5418      2.00000
     16      -7.1670      2.00000
     17       0.1705      2.00000
     18       1.0243      2.00000
     19       1.5125      2.00000
     20       3.9951      0.00000
     21       5.1138      0.00000
     22       5.5090      0.00000
     23       6.4564      0.00000

 k-point    16 :      -0.3750    0.2500    0.0000
[...]
      4     -22.2494      2.00000
      5     -22.2403      2.00000
      6     -22.2400      2.00000
      7     -22.2400      2.00000
      8     -19.1379      2.00000
      9     -19.1365      2.00000
     10     -19.1365      2.00000
     11     -19.1338      2.00000
     12     -19.1334      2.00000
     13     -12.5518      2.00000
     14     -12.5432      2.00000
     15     -12.5432      2.00000
     16      -7.1841      2.00000
     17       0.2228      2.00000
     18       1.4660      2.00000
     19       1.4660      2.00000
     20       3.6468      0.00000
     21       3.7694      0.00000
     22       6.4086      0.00000
     23       6.9999      0.00000

 k-point    19 :       0.5000    0.3750    0.0000
  band No.  band energies     occupation 
      1     -29.0245      2.00000
      2     -22.2505      2.00000
      3     -22.2496      2.00000
      4     -22.2496      2.00000
      5     -22.2403      2.00000
      6     -22.2403      2.00000
      7     -22.2392      2.00000
      8     -19.1379      2.00000
      9     -19.1365      2.00000
     10     -19.1364      2.00000
     11     -19.1337      2.00000
     12     -19.1334      2.00000
     13     -12.5525      2.00000
     14     -12.5448      2.00000
     15     -12.5432      2.00000
     16      -7.1624      2.00000
     17       0.2245      2.00000
     18       1.1452      2.00000
     19       1.4236      2.00000
     20       3.6721      0.00000
     21       4.0457      0.00000
     22       6.5023      0.00000
     23       7.0487      0.00000

 k-point    20 :      -0.3750    0.3750    0.0000
  band No.  band energies     occupation 
      1     -29.0245      2.00000
      2     -22.2507      2.00000
      3     -22.2487      2.00000
      4     -22.2486      2.00000
      5     -22.2413      2.00000
      6     -22.2412      2.00000
      7     -22.2391      2.00000
      8     -19.1376      2.00000
      9     -19.1368      2.00000
     10     -19.1365      2.00000
     11     -19.1337      2.00000
     12     -19.1335      2.00000
     13     -12.5507      2.00000
     14     -12.5483      2.00000
     15     -12.5423      2.00000
     16      -7.1522      2.00000
     17       0.3971      2.00000
     18       0.6353      2.00000
     19       1.4562      2.00000
     20       3.8926      0.00000
     21       4.9999      0.00000
     22       6.1828      0.00000
     23       6.7131      0.00000

 k-point    21 :       0.5000    0.5000    0.0000
  band No.  band energies     occupation 
      1     -29.0245      2.00000
      2     -22.2509      2.00000
      3     -22.2500      2.00000
      4     -22.2500      2.00000
      5     -22.2399      2.00000
      6     -22.2399      2.00000
      7     -22.2387      2.00000
      8     -19.1380      2.00000
      9     -19.1364      2.00000
     10     -19.1364      2.00000
     11     -19.1337      2.00000
     12     -19.1333      2.00000
     13     -12.5534      2.00000
     14     -12.5438      2.00000
     15     -12.5438      2.00000
     16      -7.1603      2.00000
     17       0.1744      2.00000
     18       1.3892      2.00000
     19       1.3892      2.00000
     20       3.5167      0.00000
     21       3.5568      0.00000
     22       7.1117      0.00000
     23       7.3030      0.00000

 k-point    22 :       0.3750    0.2500    0.1250
  band No.  band energies     occupation 
      1     -29.0246      2.00000
      2     -22.2497      2.00000
      3     -22.2481      2.00000
      4     -22.2456      2.00000
      5     -22.2441      2.00000
      6     -22.2418      2.00000
      7     -22.2401      2.00000
      8     -19.1374      2.00000
      9     -19.1367      2.00000
     10     -19.1367      2.00000
     11     -19.1338      2.00000
     12     -19.1336      2.00000
     13     -12.5497      2.00000
     14     -12.5427      2.00000
     15     -12.5403      2.00000
     16      -7.2289      2.00000
     17       0.3559      2.00000
     18       1.4316      2.00000
     19       1.7082      2.00000
     20       4.0894      0.00000
     21       4.5100      0.00000
     22       5.5709      0.00000
     23       6.0033      0.00000

 k-point    23 :       0.5000    0.2500    0.1250
  band No.  band energies     occupation 
      1     -29.0245      2.00000
      2     -22.2497      2.00000
      3     -22.2474      2.00000
      4     -22.2466      2.00000
      5     -22.2432      2.00000
      6     -22.2423      2.00000
      7     -22.2402      2.00000
      8     -19.1374      2.00000
      9     -19.1368      2.00000
     10     -19.1366      2.00000
     11     -19.1338      2.00000
     12     -19.1336      2.00000
     13     -12.5528      2.00000
     14     -12.5439      2.00000
     15     -12.5408      2.00000
     16      -7.1807      2.00000
     17       0.1610      2.00000
     18       1.1262      2.00000
     19       1.5551      2.00000
     20       4.3207      0.00000
     21       5.0444      0.00000
     22       5.3326      0.00000
     23       6.3260      0.00000

 k-point    24 :      -0.3750    0.2500    0.1250
  band No.  band energies     occupation 
      1     -29.0245      2.00000
      2     -22.2491      2.00000
      3     -22.2485      2.00000
      4     -22.2451      2.00000
      5     -22.2448      2.00000
      6     -22.2410      2.00000
      7     -22.2409      2.00000
      8     -19.1373      2.00000
      9     -19.1369      2.00000
     10     -19.1365      2.00000
     11     -19.1337      2.00000
     12     -19.1337      2.00000
     13     -12.5542      2.00000
     14     -12.5442      2.00000
     15     -12.5412      2.00000
     16      -7.1605      2.00000
     17       0.0898      2.00000
     18       1.0148      2.00000
     19       1.4898      2.00000
     20       4.4000      0.00000
     21       4.9212      0.00000
     22       6.1280      0.00000
     23       6.2599      0.00000

 k-point    25 :       0.5000    0.3750    0.1250
  band No.  band energies     occupation 
      1     -29.0245      2.00000
      2     -22.2501      2.00000
      3     -22.2492      2.00000
      4     -22.2484      2.00000
      5     -22.2415      2.00000
      6     -22.2404      2.00000
      7     -22.2398      2.00000
      8     -19.1377      2.00000
      9     -19.1367      2.00000
     10     -19.1365      2.00000
     11     -19.1337      2.00000
     12     -19.1335      2.00000
     13     -12.5518      2.00000
     14     -12.5445      2.00000
     15     -12.5427      2.00000
     16      -7.1735      2.00000
     17       0.2429      2.00000
     18       1.1753      2.00000
     19       1.3698      2.00000
     20       4.1884      0.00000
     21       4.2421      0.00000
     22       5.7300      0.00000
     23       6.9332      0.00000

 k-point    26 :      -0.3750    0.3750    0.1250
  band No.  band energies     occupation 
      1     -29.0245      2.00000
      2     -22.2505      2.00000
      3     -22.2496      2.00000
      4     -22.2469      2.00000
      5     -22.2430      2.00000
      6     -22.2400      2.00000
      7     -22.2395      2.00000
      8     -19.1375      2.00000
      9     -19.1369      2.00000
     10     -19.1365      2.00000
     11     -19.1337      2.00000
     12     -19.1335      2.00000
     13     -12.5512      2.00000
     14     -12.5468      2.00000
     15     -12.5429      2.00000
     16      -7.1535      2.00000
     17       0.3467      2.00000
     18       0.7828      2.00000
     19       1.2856      2.00000
     20       4.3301      0.00000
     21       5.0706      0.00000
     22       5.5142      0.00000
     23       6.3697      0.00000

 k-point    27 :      -0.2500    0.3750    0.1250
  band No.  band energies     occupation 
      1     -29.0245      2.00000
      2     -22.2504      2.00000
      3     -22.2489      2.00000
      4     -22.2451      2.00000
      5     -22.2448      2.00000
      6     -22.2408      2.00000
      7     -22.2395      2.00000
      8     -19.1372      2.00000
      9     -19.1371      2.00000
     10     -19.1365      2.00000
     11     -19.1337      2.00000
     12     -19.1336      2.00000
     13     -12.5509      2.00000
     14     -12.5475      2.00000
     15     -12.5419      2.00000
     16      -7.1565      2.00000
     17       0.3364      2.00000
     18       0.7161      2.00000
     19       1.3799      2.00000
     20       4.6327      0.00000
     21       5.2217      0.00000
     22       5.3763      0.00000
     23       6.1946      0.00000

 k-point    28 :      -0.3750    0.5000    0.1250
  band No.  band energies     occupation 
      1     -29.0245      2.00000
      2     -22.2509      2.00000
      3     -22.2500      2.00000
      4     -22.2486      2.00000
      5     -22.2414      2.00000
      6     -22.2397      2.00000
      7     -22.2389      2.00000
      8     -19.1378      2.00000
      9     -19.1366      2.00000
     10     -19.1364      2.00000
     11     -19.1337      2.00000
     12     -19.1334      2.00000
     13     -12.5520      2.00000
     14     -12.5452      2.00000
     15     -12.5442      2.00000
     16      -7.1542      2.00000
     17       0.2869      2.00000
     18       1.0855      2.00000
     19       1.1856      2.00000
     20       4.0743      0.00000
     21       4.0814      0.00000
     22       6.4229      0.00000
     23       6.7293      0.00000

 k-point    29 :      -0.2500    0.5000    0.2500
  band No.  band energies     occupation 
      1     -29.0245      2.00000
      2     -22.2509      2.00000
      3     -22.2500      2.00000
      4     -22.2450      2.00000
      5     -22.2450      2.00000
      6     -22.2395      2.00000
      7     -22.2392      2.00000
      8     -19.1372      2.00000
      9     -19.1372      2.00000
     10     -19.1364      2.00000
     11     -19.1336      2.00000
     12     -19.1335      2.00000
     13     -12.5486      2.00000
     14     -12.5486      2.00000
     15     -12.5445      2.00000
     16      -7.1480      2.00000
     17       0.6129      2.00000
     18       0.6129      2.00000
     19       1.0229      2.00000
     20       4.9343      0.00000
     21       5.2869      0.00000
     22       5.2869      0.00000
     23       5.5007      0.00000


--------------------------------------------------------------------------------------------------------


 soft charge-density along one line, spin component           1
         0         1         2         3         4         5         6         7         8         9
 total charge-density along one line
 
 pseudopotential strength for first ion, spin component:           1
-19.471  -0.000   0.000  -0.000  -0.000   5.086   0.000  -0.000
 -0.000 -19.471  -0.000  -0.000   0.000   0.000   5.086   0.000
  0.000  -0.000 -19.471  -0.000  -0.000  -0.000   0.000   5.086
 -0.000  -0.000  -0.000 -19.471  -0.000   0.000   0.000   0.000
 -0.000   0.000  -0.000  -0.000 -19.471   0.000  -0.000   0.000
  5.086   0.000  -0.000   0.000   0.000   5.254  -0.000   0.000
  0.000   5.086   0.000   0.000  -0.000  -0.000   5.254  -0.000
 -0.000   0.000   5.086   0.000   0.000   0.000  -0.000   5.254
  0.000   0.000   0.000   5.086   0.000  -0.000  -0.000  -0.000
  0.000  -0.000   0.000   0.000   5.086   0.000   0.000  -0.000
  0.000   0.000  -0.000   0.000  -0.000   0.000   0.000  -0.000
  0.000   0.000  -0.000   0.000  -0.000  -0.000  -0.000   0.000
 -0.000  -0.000   0.000  -0.000   0.000  -0.000  -0.000   0.000
 -0.000  -0.000  -0.000  -0.000  -0.000  -0.000  -0.000  -0.000
 -0.000  -0.000   0.000  -0.000  -0.000  -0.000  -0.000   0.000
 -0.000  -0.000   0.000  -0.000   0.000  -0.000  -0.000   0.000
 -0.000  -0.000  -0.000  -0.000  -0.000  -0.000  -0.000  -0.000
 -0.000  -0.000   0.000  -0.000  -0.000  -0.000  -0.000   0.000
 total augmentation occupancy for first ion, spin component:           1
  1.999  -0.000  -0.000  -0.000  -0.000   0.004   0.000   0.000   0.000  -0.000   0.000   0.000   0.000   0.000  -0.000   0.000
 -0.000   1.999   0.000  -0.000  -0.000  -0.000   0.004   0.000   0.000   0.000  -0.000  -0.000   0.000   0.000   0.000  -0.000
  0.000   0.000   1.999   0.000   0.000  -0.000   0.000   0.004  -0.000   0.000   0.000   0.000   0.000   0.000  -0.000   0.000
 -0.000   0.000   0.000   1.999   0.000   0.000   0.000  -0.000   0.004   0.000  -0.000   0.000  -0.000  -0.000   0.000   0.000
  0.000  -0.000   0.000   0.000   1.999   0.000   0.000   0.000   0.000   0.004   0.000   0.000  -0.000  -0.000  -0.000   0.000
  0.004   0.000  -0.000   0.000  -0.000   0.001   0.000  -0.000   0.000  -0.000  -0.000   0.000  -0.000  -0.000   0.000  -0.000
  0.000   0.004   0.000   0.000  -0.000   0.000   0.001  -0.000   0.000   0.000  -0.000  -0.000   0.000  -0.000  -0.000  -0.000
  0.000  -0.000   0.004   0.000   0.000  -0.000   0.000   0.001   0.000   0.000  -0.000   0.000   0.000   0.000   0.000  -0.000
  0.000   0.000  -0.000   0.004  -0.000  -0.000   0.000   0.000   0.001  -0.000  -0.000  -0.000  -0.000  -0.000  -0.000  -0.000
  0.000   0.000   0.000   0.000   0.004  -0.000   0.000   0.000  -0.000   0.001   0.000   0.000   0.000  -0.000  -0.000  -0.000
  0.000  -0.000   0.000   0.000   0.000   0.000  -0.000  -0.000  -0.000   0.000   1.923   0.024   0.000  -0.000  -0.000  -0.000
 -0.000   0.000   0.000  -0.000   0.000   0.000  -0.000   0.000  -0.000   0.000   0.024   0.002   0.000   0.000   0.000   0.000
  0.000   0.000  -0.000   0.000   0.000  -0.000   0.000  -0.000  -0.000  -0.000   0.000   0.000   1.455   0.000   0.000  -0.071
  0.000   0.000   0.000  -0.000   0.000  -0.000  -0.000  -0.000   0.000   0.000   0.000   0.000   0.000   1.455   0.000  -0.000
 -0.000   0.000  -0.000  -0.000  -0.000   0.000  -0.000  -0.000   0.000  -0.000   0.000   0.000   0.000   0.000   1.455   0.000
  0.000   0.000  -0.000   0.000  -0.000   0.000   0.000   0.000  -0.000   0.000   0.000   0.000  -0.071  -0.000   0.000   0.004
  0.000  -0.000   0.000  -0.000  -0.000  -0.000   0.000   0.000   0.000  -0.000   0.000  -0.000   0.000  -0.071   0.000   0.000
  0.000  -0.000   0.000  -0.000   0.000   0.000  -0.000   0.000   0.000  -0.000  -0.000   0.000   0.000  -0.000  -0.071  -0.000


------------------------ aborting loop because EDIFF is reached ----------------------------------------


    CHARGE:  cpu time    0.0365: real time    0.0366
    FORLOC:  cpu time    0.0057: real time    0.0057
    FORNL :  cpu time    0.0450: real time    0.0450
    STRESS:  cpu time    0.1740: real time    0.1742
    FORCOR:  cpu time    0.0571: real time    0.0571
    FORHAR:  cpu time    0.0154: real time    0.0154
    MIXING:  cpu time    0.0056: real time    0.0056
    OFIELD:  cpu time    0.0000: real time    0.0000

  FORCE on cell =-STRESS in cart. coord.  units (eV):
  Direction    XX          YY          ZZ          XY          YZ          ZX
  --------------------------------------------------------------------------------------
  Alpha Z   102.11721   102.11721   102.11721
  Ewald    -841.52375  -841.52375  -841.52375     0.00010     0.00010     0.00010
  Hartree   413.63616   413.63616   413.63616     0.00006     0.00006     0.00006
  E(xc)    -185.55888  -185.55888  -185.55888     0.00004     0.00004     0.00004
  Local     -80.23850   -80.23850   -80.23850    -0.00022    -0.00022    -0.00022
  n-local     5.24048     5.49809     2.28114     1.91688    -1.46039     0.77464
  augment   226.67169   226.67169   226.67169     0.00004     0.00004     0.00004
  Kinetic   361.40152   361.41969   358.88190     2.93770    -1.84514     1.27153
  Fock        0.00000     0.00000     0.00000     0.00000     0.00000     0.00000
  -------------------------------------------------------------------------------------
  Total       0.01154     0.01154     0.01154    -0.00000     0.00000     0.00000
  in kB       0.14642     0.14642     0.14642    -0.00000     0.00000     0.00000
  external pressure =        0.15 kB  Pullay stress =        0.00 kB


 VOLUME and BASIS-vectors are now :
 -----------------------------------------------------------------------------
  energy-cutoff  :      520.00
  volume of cell :      126.24
      direct lattice vectors                 reciprocal lattice vectors
     0.000000000  3.981588847  3.981588847    -0.125578009  0.125578009  0.125578009
     3.981588847  0.000000000  3.981588847     0.125578009 -0.125578009  0.125578009
     3.981588847  3.981588847  0.000000000     0.125578009  0.125578009 -0.125578009

  length of vectors
     5.630816947  5.630816947  5.630816947     0.217507492  0.217507492  0.217507492


 FORCES acting on ions
    electron-ion (+dipol)            ewald-force                    non-local-force                 convergence-correction
 -----------------------------------------------------------------------------------------------
   0.247E-03 0.247E-03 0.225E-03   -.656E-04 -.656E-04 -.656E-04   -.318E-21 0.212E-21 0.215E-21   0.229E-06 0.229E-06 0.231E-06
   0.851E-03 0.851E-03 0.839E-03   0.127E-03 0.127E-03 0.127E-03   -.424E-20 0.169E-20 -.593E-20   -.216E-06 -.216E-06 -.217E-06
   -.176E-04 -.176E-04 -.175E-04   -.952E-04 -.952E-04 -.952E-04   -.121E-16 -.156E-16 -.154E-16   0.844E-07 0.844E-07 0.845E-07
   0.129E-03 0.129E-03 0.129E-03   0.340E-04 0.340E-04 0.340E-04   0.867E-17 0.173E-16 0.164E-16   -.857E-09 -.857E-09 -.798E-09
 -----------------------------------------------------------------------------------------------
   0.121E-02 0.121E-02 0.118E-02   -.499E-15 0.812E-15 -.623E-16   -.347E-17 0.174E-17 0.102E-17   0.967E-07 0.967E-07 0.973E-07
 
 
 POSITION                                       TOTAL-FORCE (eV/Angst)
 -----------------------------------------------------------------------------------
      1.99079      1.99079      1.99079         0.000000     -0.000000      0.000000
      5.97238      5.97238      5.97238        -0.000000      0.000000     -0.000000
      0.00000      0.00000      0.00000         0.000000     -0.000000     -0.000000
      3.98159      3.98159      3.98159         0.000000     -0.000000      0.000000
 -----------------------------------------------------------------------------------
    total drift:                                0.001209      0.001209      0.001175


--------------------------------------------------------------------------------------------------------



  FREE ENERGIE OF THE ION-ELECTRON SYSTEM (eV)
  ---------------------------------------------------
  free  energy   TOTEN  =        -9.14668923 eV

  energy  without entropy=       -9.14653059  energy(sigma->0) =       -9.14660991
 


--------------------------------------------------------------------------------------------------------


    POTLOK:  cpu time    0.0543: real time    0.0549


--------------------------------------------------------------------------------------------------------


     LOOP+:  cpu time    6.4066: real time    6.4299
    4ORBIT:  cpu time    0.0000: real time    0.0000

 total amount of memory used by VASP MPI-rank0    51132. kBytes
=======================================================================

   base      :      30000. kBytes
   nonl-proj :       6371. kBytes
   fftplans  :       3211. kBytes
   grid      :       5943. kBytes
   one-center:         15. kBytes
   wavefun   :       5592. kBytes
 
  
  
 General timing and accounting informations for this job:
 ========================================================
  
                  Total CPU time used (sec):        7.100
                            User time (sec):        6.888
                          System time (sec):        0.212
                         Elapsed time (sec):        7.285
  
                   Maximum memory used (kb):       97512.
                   Average memory used (kb):           0.
  
                          Minor page faults:        25764
                          Major page faults:            0
                 Voluntary context switches:          407
