<?xml version="1.0" encoding="ISO-8859-1"?>
<modeling>
 <generator>
  <i name="program" type="string">vasp </i>
  <i name="version" type="string">5.4.4.18Apr17-6-g9f103f2a35  </i>
  <i name="subversion" type="string">(build Jun 23 2019 17:35:09) complex            parallel </i>
  <i name="platform" type="string">LinuxIFC </i>
  <i name="date" type="string">2020 01 15 </i>
  <i name="time" type="string">15:37:18 </i>
 </generator>
 <incar>
  <i type="int" name="ISTART">     0</i>
  <i type="string" name="PREC">acc</i>
  <i type="string" name="ALGO"> Normal</i>
  <i type="int" name="ISPIN">     1</i>
  <i type="int" name="NELM">   150</i>
  <i type="int" name="NELMIN">     5</i>
  <i type="int" name="IBRION">    -1</i>
  <i name="EDIFF">      0.00000001</i>
  <i type="int" name="NSW">     0</i>
  <i type="int" name="ISIF">     3</i>
  <i name="ENCUT">    520.00000000</i>
  <i type="logical" name="LREAL"> F  </i>
  <i type="logical" name="LPLANE"> T  </i>
  <i type="int" name="ISMEAR">     0</i>
  <i name="SIGMA">      0.05000000</i>
  <i type="logical" name="LWAVE"> F  </i>
  <i type="logical" name="LCHARG"> F  </i>
  <v type="int" name="KPOINT_BSE">    -1     0     0     0</v>
  <i type="int" name="NELM">   150</i>
  <i type="string" name="GGA"> PE</i>
 </incar>
 <structure name="primitive_cell" >
  <crystal>
   <varray name="basis" >
    <v>       0.00000000       3.98158885       3.98158885 </v>
    <v>       3.98158885       0.00000000       3.98158885 </v>
    <v>       3.98158885       3.98158885       0.00000000 </v>
   </varray>
   <i name="volume">    126.24065213 </i>
   <varray name="rec_basis" >
    <v>      -0.12557801       0.12557801       0.12557801 </v>
    <v>       0.12557801      -0.12557801       0.12557801 </v>
    <v>       0.12557801       0.12557801      -0.12557801 </v>
   </varray>
  </crystal>
  <varray name="positions" >
   <v>       0.24999994       0.24999994       0.24999994 </v>
   <v>       0.00000000       0.00000000       0.00000000 </v>
   <v>       0.49999987       0.49999987       0.49999987 </v>
   <v>      -0.25000019      -0.25000019      -0.25000019 </v>
  </varray>
 </structure>
 <varray name="primitive_index" >
  <v type="int" >        1 </v>
  <v type="int" >        3 </v>
  <v type="int" >        4 </v>
  <v type="int" >        2 </v>
 </varray>
 <kpoints>
  <generation param="Gamma">
   <v type="int" name="divisions">       8        8        8 </v>
   <v name="usershift">      0.00000000       0.00000000       0.00000000 </v>
   <v name="genvec1">      0.12500000       0.00000000       0.00000000 </v>
   <v name="genvec2">      0.00000000       0.12500000       0.00000000 </v>
   <v name="genvec3">      0.00000000       0.00000000       0.12500000 </v>
   <v name="shift">      0.00000000       0.00000000       0.00000000 </v>
  </generation>
  <varray name="kpointlist" >
   <v>       0.00000000       0.00000000       0.00000000 </v>
   <v>       0.12500000       0.00000000       0.00000000 </v>
   <v>       0.25000000       0.00000000       0.00000000 </v>
   <v>       0.37500000       0.00000000       0.00000000 </v>
   <v>       0.50000000       0.00000000       0.00000000 </v>
   <v>       0.12500000       0.12500000       0.00000000 </v>
   <v>       0.25000000       0.12500000       0.00000000 </v>
   <v>       0.37500000       0.12500000       0.00000000 </v>
   <v>       0.50000000       0.12500000       0.00000000 </v>
   <v>      -0.37500000       0.12500000       0.00000000 </v>
   <v>      -0.25000000       0.12500000       0.00000000 </v>
   <v>      -0.12500000       0.12500000       0.00000000 </v>
   <v>       0.25000000       0.25000000       0.00000000 </v>
   <v>       0.37500000       0.25000000       0.00000000 </v>
   <v>       0.50000000       0.25000000       0.00000000 </v>
   <v>      -0.37500000       0.25000000       0.00000000 </v>
   <v>      -0.25000000       0.25000000       0.00000000 </v>
   <v>       0.37500000       0.37500000       0.00000000 </v>
   <v>       0.50000000       0.37500000       0.00000000 </v>
   <v>      -0.37500000       0.37500000       0.00000000 </v>
   <v>       0.50000000       0.50000000       0.00000000 </v>
   <v>       0.37500000       0.25000000       0.12500000 </v>
   <v>       0.50000000       0.25000000       0.12500000 </v>
   <v>      -0.37500000       0.25000000       0.12500000 </v>
   <v>       0.50000000       0.37500000       0.12500000 </v>
   <v>      -0.37500000       0.37500000       0.12500000 </v>
   <v>      -0.25000000       0.37500000       0.12500000 </v>
   <v>      -0.37500000       0.50000000       0.12500000 </v>
   <v>      -0.25000000       0.50000000       0.25000000 </v>
  </varray>
  <varray name="weights" >
   <v>       0.00195312 </v>
   <v>       0.01562500 </v>
   <v>       0.01562500 </v>
   <v>       0.01562500 </v>
   <v>       0.00781250 </v>
   <v>       0.01171875 </v>
   <v>       0.04687500 </v>
   <v>       0.04687500 </v>
   <v>       0.04687500 </v>
   <v>       0.04687500 </v>
   <v>       0.04687500 </v>
   <v>       0.02343750 </v>
   <v>       0.01171875 </v>
   <v>       0.04687500 </v>
   <v>       0.04687500 </v>
   <v>       0.04687500 </v>
   <v>       0.02343750 </v>
   <v>       0.01171875 </v>
   <v>       0.04687500 </v>
   <v>       0.02343750 </v>
   <v>       0.00585938 </v>
   <v>       0.04687500 </v>
   <v>       0.09375000 </v>
   <v>       0.04687500 </v>
   <v>       0.04687500 </v>
   <v>       0.09375000 </v>
   <v>       0.04687500 </v>
   <v>       0.02343750 </v>
   <v>       0.01171875 </v>
  </varray>
 </kpoints>
 <parameters>
  <separator name="general" >
   <i type="string" name="SYSTEM">unknown system</i>
   <i type="logical" name="LCOMPAT"> F  </i>
  </separator>
  <separator name="electronic" >
   <i type="string" name="PREC">acc</i>
   <i name="ENMAX">    520.00000000</i>
   <i name="ENAUG">    442.89900000</i>
   <i name="EDIFF">      0.00000001</i>
   <i type="int" name="IALGO">    38</i>
   <i type="int" name="IWAVPR">    10</i>
   <i type="int" name="NBANDS">    23</i>
   <i name="NELECT">     38.00000000</i>
   <i type="int" name="TURBO">     0</i>
   <i type="int" name="IRESTART">     0</i>
   <i type="int" name="NREBOOT">     0</i>
   <i type="int" name="NMIN">     0</i>
   <i name="EREF">      0.00000000</i>
   <separator name="electronic smearing" >
    <i type="int" name="ISMEAR">     0</i>
    <i name="SIGMA">      0.05000000</i>
    <i name="KSPACING">      0.50000000</i>
    <i type="logical" name="KGAMMA"> T  </i>
   </separator>
   <separator name="electronic projectors" >
    <i type="logical" name="LREAL"> F  </i>
    <v name="ROPT">      0.00000000      0.00000000      0.00000000</v>
    <i type="int" name="LMAXPAW">  -100</i>
    <i type="int" name="LMAXMIX">     2</i>
    <i type="logical" name="NLSPLINE"> F  </i>
   </separator>
   <separator name="electronic startup" >
    <i type="int" name="ISTART">     0</i>
    <i type="int" name="ICHARG">     2</i>
    <i type="int" name="INIWAV">     1</i>
   </separator>
   <separator name="electronic spin" >
    <i type="int" name="ISPIN">     1</i>
    <i type="logical" name="LNONCOLLINEAR"> F  </i>
    <v name="MAGMOM">      1.00000000      1.00000000      1.00000000      1.00000000</v>
    <i name="NUPDOWN">     -1.00000000</i>
    <i type="logical" name="LSORBIT"> F  </i>
    <v name="SAXIS">      0.00000000      0.00000000      1.00000000</v>
    <i type="logical" name="LSPIRAL"> F  </i>
    <v name="QSPIRAL">      0.00000000      0.00000000      0.00000000</v>
    <i type="logical" name="LZEROZ"> F  </i>
   </separator>
   <separator name="electronic exchange-correlation" >
    <i type="logical" name="LASPH"> F  </i>
    <i type="logical" name="LMETAGGA"> F  </i>
   </separator>
   <separator name="electronic convergence" >
    <i type="int" name="NELM">   150</i>
    <i type="int" name="NELMDL">    -5</i>
    <i type="int" name="NELMIN">     5</i>
    <i name="ENINI">    520.00000000</i>
    <separator name="electronic convergence detail" >
     <i type="logical" name="LDIAG"> T  </i>
     <i type="logical" name="LSUBROT"> F  </i>
     <i name="WEIMIN">      0.00000000</i>
     <i name="EBREAK">      0.00000000</i>
     <i name="DEPER">      0.30000000</i>
     <i type="int" name="NRMM">     4</i>
     <i name="TIME">      0.40000000</i>
    </separator>
   </separator>
   <separator name="electronic mixer" >
    <i name="AMIX">      0.40000000</i>
    <i name="BMIX">      1.00000000</i>
    <i name="AMIN">      0.10000000</i>
    <i name="AMIX_MAG">      1.60000000</i>
    <i name="BMIX_MAG">      1.00000000</i>
    <separator name="electronic mixer details" >
     <i type="int" name="IMIX">     4</i>
     <i type="logical" name="MIXFIRST"> F  </i>
     <i type="int" name="MAXMIX">   -45</i>
     <i name="WC">    100.00000000</i>
     <i type="int" name="INIMIX">     1</i>
     <i type="int" name="MIXPRE">     1</i>
     <i type="int" name="MREMOVE">     5</i>
    </separator>
   </separator>
   <separator name="electronic dipolcorrection" >
    <i type="logical" name="LDIPOL"> F  </i>
    <i type="logical" name="LMONO"> F  </i>
    <i type="int" name="IDIPOL">     0</i>
    <i name="EPSILON">      1.00000000</i>
    <v name="DIPOL">   -100.00000000   -100.00000000   -100.00000000</v>
    <i name="EFIELD">      0.00000000</i>
   </separator>
  </separator>
  <separator name="grids" >
   <i type="int" name="NGX">    42</i>
   <i type="int" name="NGY">    42</i>
   <i type="int" name="NGZ">    42</i>
   <i type="int" name="NGXF">    84</i>
   <i type="int" name="NGYF">    84</i>
   <i type="int" name="NGZF">    84</i>
   <i type="logical" name="ADDGRID"> F  </i>
  </separator>
  <separator name="ionic" >
   <i type="int" name="NSW">     0</i>
   <i type="int" name="IBRION">    -1</i>
   <i type="int" name="MDALGO">     0</i>
   <i type="int" name="ISIF">     3</i>
   <i name="PSTRESS">      0.00000000</i>
   <i name="EDIFFG">      0.00000010</i>
   <i type="int" name="NFREE">     0</i>
   <i name="POTIM">      0.50000000</i>
   <i name="SMASS">     -3.00000000</i>
   <i name="SCALEE">      1.00000000</i>
  </separator>
  <separator name="ionic md" >
   <i name="TEBEG">      0.00010000</i>
   <i name="TEEND">      0.00010000</i>
   <i type="int" name="NBLOCK">     1</i>
   <i type="int" name="KBLOCK">     1</i>
   <i type="int" name="NPACO">   256</i>
   <i name="APACO">     16.00000000</i>
  </separator>
  <separator name="symmetry" >
   <i type="int" name="ISYM">     2</i>
   <i name="SYMPREC">      0.00001000</i>
  </separator>
  <separator name="dos" >
   <i type="int" name="LORBIT">     0</i>
   <v name="RWIGS">     -1.00000000     -1.00000000     -1.00000000</v>
   <i type="int" name="NEDOS">   301</i>
   <i name="EMIN">     10.00000000</i>
   <i name="EMAX">    -10.00000000</i>
   <i name="EFERMI">      0.00000000</i>
  </separator>
  <separator name="writing" >
   <i type="int" name="NWRITE">     2</i>
   <i type="logical" name="LWAVE"> F  </i>
   <i type="logical" name="LDOWNSAMPLE"> F  </i>
   <i type="logical" name="LCHARG"> F  </i>
   <i type="logical" name="LPARD"> F  </i>
   <i type="logical" name="LVTOT"> F  </i>
   <i type="logical" name="LVHAR"> F  </i>
   <i type="logical" name="LELF"> F  </i>
   <i type="logical" name="LOPTICS"> F  </i>
   <v name="STM">      0.00000000      0.00000000      0.00000000      0.00000000      0.00000000      0.00000000      0.00000000</v>
  </separator>
  <separator name="performance" >
   <i type="int" name="NPAR">     1</i>
   <i type="int" name="NSIM">     4</i>
   <i type="int" name="NBLK">    -1</i>
   <i type="logical" name="LPLANE"> T  </i>
   <i type="logical" name="LSCALAPACK"> T  </i>
   <i type="logical" name="LSCAAWARE"> F  </i>
   <i type="logical" name="LSCALU"> F  </i>
   <i type="logical" name="LASYNC"> F  </i>
   <i type="logical" name="LORBITALREAL"> F  </i>
  </separator>
  <separator name="miscellaneous" >
   <i type="int" name="IDIOT">     3</i>
   <i type="int" name="ISPECIAL">     0</i>
   <i type="logical" name="LMUSIC"> F  </i>
   <v name="POMASS">    208.98000000     39.09800000     22.99000000</v>
   <v name="DARWINR">      0.00000000      0.00000000      0.00000000</v>
   <v name="DARWINV">      1.00000000      1.00000000      1.00000000</v>
   <i type="logical" name="LCORR"> T  </i>
  </separator>
  <i type="logical" name="GGA_COMPAT"> T  </i>
  <i type="logical" name="LBERRY"> F  </i>
  <i type="int" name="ICORELEVEL">     0</i>
  <i type="logical" name="LDAU"> F  </i>
  <i type="int" name="I_CONSTRAINED_M">     0</i>
  <separator name="electronic exchange-correlation" >
   <i type="string" name="GGA">PE</i>
   <i type="int" name="VOSKOWN">     0</i>
   <i type="logical" name="LHFCALC"> F  </i>
   <i type="string" name="PRECFOCK"></i>
   <i type="logical" name="LSYMGRAD"> F  </i>
   <i type="logical" name="LHFONE"> F  </i>
   <i type="logical" name="LRHFCALC"> F  </i>
   <i type="logical" name="LTHOMAS"> F  </i>
   <i type="logical" name="LMODELHF"> F  </i>
   <i name="ENCUT4O">     -1.00000000</i>
   <i type="int" name="EXXOEP">     0</i>
   <i type="int" name="FOURORBIT">     0</i>
   <i name="AEXX">      0.00000000</i>
   <i name="HFALPHA">      0.00000000</i>
   <i name="MCALPHA">      0.00000000</i>
   <i name="ALDAX">      1.00000000</i>
   <i name="AGGAX">      1.00000000</i>
   <i name="ALDAC">      1.00000000</i>
   <i name="AGGAC">      1.00000000</i>
   <i type="int" name="NKREDX">     1</i>
   <i type="int" name="NKREDY">     1</i>
   <i type="int" name="NKREDZ">     1</i>
   <i type="logical" name="SHIFTRED"> F  </i>
   <i type="logical" name="ODDONLY"> F  </i>
   <i type="logical" name="EVENONLY"> F  </i>
   <i type="int" name="LMAXFOCK">     0</i>
   <i type="int" name="NMAXFOCKAE">     0</i>
   <i type="logical" name="LFOCKAEDFT"> F  </i>
   <i name="HFSCREEN">      0.00000000</i>
   <i name="HFSCREENC">      0.00000000</i>
   <i type="int" name="NBANDSGWLOW">     0</i>
  </separator>
  <separator name="vdW DFT" >
   <i type="logical" name="LUSE_VDW"> F  </i>
   <i name="Zab_VDW">     -0.84910000</i>
   <i name="PARAM1">      0.12340000</i>
   <i name="PARAM2">      1.00000000</i>
   <i name="PARAM3">      0.00000000</i>
  </separator>
  <separator name="model GW" >
   <i type="int" name="MODEL_GW">     0</i>
   <i name="MODEL_EPS0">     18.93609782</i>
   <i name="MODEL_ALPHA">      1.00000000</i>
  </separator>
  <separator name="linear response parameters" >
   <i type="logical" name="LEPSILON"> F  </i>
   <i type="logical" name="LRPA"> F  </i>
   <i type="logical" name="LNABLA"> F  </i>
   <i type="logical" name="LVEL"> F  </i>
   <i type="int" name="KINTER">     0</i>
   <i name="CSHIFT">      0.10000000</i>
   <i name="OMEGAMAX">     -1.00000000</i>
   <i name="DEG_THRESHOLD">      0.00200000</i>
   <i name="RTIME">     -0.10000000</i>
   <i name="WPLASMAI">      0.00000000</i>
   <v name="DFIELD">      0.00000000      0.00000000      0.00000000</v>
   <v name="WPLASMA">      0.00000000      0.00000000      0.00000000      0.00000000      0.00000000      0.00000000      0.00000000      0.00000000      0.00000000</v>
  </separator>
  <separator name="orbital magnetization" >
   <i type="logical" name="NUCIND"> F  </i>
   <v name="MAGPOS">      0.00000000      0.00000000      0.00000000</v>
   <i type="logical" name="LNICSALL"> T  </i>
   <i type="logical" name="ORBITALMAG"> F  </i>
   <i type="logical" name="LMAGBLOCH"> F  </i>
   <i type="logical" name="LCHIMAG"> F  </i>
   <i type="logical" name="LGAUGE"> T  </i>
   <i type="int" name="MAGATOM">     0</i>
   <v name="MAGDIPOL">      0.00000000      0.00000000      0.00000000</v>
   <v name="AVECCONST">      0.00000000      0.00000000      0.00000000</v>
  </separator>
  <separator name="response functions" >
   <i type="logical" name="LADDER"> F  </i>
   <i type="logical" name="LRPAFORCE"> F  </i>
   <i type="logical" name="LFXC"> F  </i>
   <i type="logical" name="LHARTREE"> T  </i>
   <i type="int" name="IBSE">     0</i>
   <v type="int" name="KPOINT">    -1     0     0     0</v>
   <i type="logical" name="LTCTE"> F  </i>
   <i type="logical" name="LTETE"> F  </i>
   <i type="logical" name="LTRIPLET"> F  </i>
   <i type="logical" name="LFXCEPS"> F  </i>
   <i type="logical" name="LFXHEG"> F  </i>
   <i type="int" name="NATURALO">     2</i>
   <i type="logical" name="L2ORDER"> F  </i>
   <i type="logical" name="LMP2LT"> F  </i>
   <i type="logical" name="LUSEW"> F  </i>
   <i name="ENCUTGW">     -2.00000000</i>
   <i name="ENCUTGWSOFT">     -2.00000000</i>
   <i name="ENCUTLF">     -1.00000000</i>
   <i type="int" name="LMAXMP2">    -1</i>
   <i name="SCISSOR">      0.00000000</i>
   <i type="int" name="NOMEGA">     0</i>
   <i type="int" name="NOMEGAR">     0</i>
   <i type="int" name="NBANDSGW">    -1</i>
   <i type="int" name="NBANDSO">    -1</i>
   <i type="int" name="NBANDSV">    -1</i>
   <i type="int" name="NELM">   150</i>
   <i type="int" name="NELMHF">     1</i>
   <i type="int" name="DIM">     3</i>
   <i type="int" name="ANTIRES">     0</i>
   <i name="OMEGAMAX">    -30.00000000</i>
   <i name="OMEGAMIN">    -30.00000000</i>
   <i name="OMEGATL">   -200.00000000</i>
   <i type="int" name="OMEGAGRID">   140</i>
   <i name="CSHIFT">     -0.10000000</i>
   <i type="logical" name="SELFENERGY"> F  </i>
   <i type="logical" name="LSPECTRAL"> F  </i>
   <i type="logical" name="LSPECTRALGW"> F  </i>
   <i type="logical" name="LSINGLES"> F  </i>
   <i type="logical" name="LFERMIGW"> F  </i>
   <i type="logical" name="ODDONLYGW"> F  </i>
   <i type="logical" name="EVENONLYGW"> F  </i>
   <i type="int" name="NKREDLFX">     1</i>
   <i type="int" name="NKREDLFY">     1</i>
   <i type="int" name="NKREDLFZ">     1</i>
   <i type="int" name="MAXMEM">  2800</i>
   <i type="int" name="TELESCOPE">     0</i>
   <i type="int" name="TAUPAR">     1</i>
   <i type="int" name="OMEGAPAR">    -1</i>
   <i name="LAMBDA">      1.00000000</i>
  </separator>
  <separator name="External order field" >
   <i name="OFIELD_KAPPA">      0.00000000</i>
   <v name="OFIELD_K">      0.00000000      0.00000000      0.00000000</v>
   <i name="OFIELD_Q6_NEAR">      0.00000000</i>
   <i name="OFIELD_Q6_FAR">      0.00000000</i>
   <i name="OFIELD_A">      0.00000000</i>
  </separator>
 </parameters>
 <atominfo>
  <atoms>       4 </atoms>
  <types>       3 </types>
  <array name="atoms" >
   <dimension dim="1">ion</dimension>
   <field type="string">element</field>
   <field type="int">atomtype</field>
   <set>
    <rc><c>Bi</c><c>   1</c></rc>
    <rc><c>K </c><c>   2</c></rc>
    <rc><c>Na</c><c>   3</c></rc>
    <rc><c>Na</c><c>   3</c></rc>
   </set>
  </array>
  <array name="atomtypes" >
   <dimension dim="1">type</dimension>
   <field type="int">atomspertype</field>
   <field type="string">element</field>
   <field>mass</field>
   <field>valence</field>
   <field type="string">pseudopotential</field>
   <set>
    <rc><c>   1</c><c>Bi</c><c>    208.98000000</c><c>     15.00000000</c><c>  PAW_PBE Bi_d 06Sep2000                </c></rc>
    <rc><c>   1</c><c>K </c><c>     39.09800000</c><c>      9.00000000</c><c>  PAW_PBE K_sv 06Sep2000                </c></rc>
    <rc><c>   2</c><c>Na</c><c>     22.99000000</c><c>      7.00000000</c><c>  PAW_PBE Na_pv 19Sep2006               </c></rc>
   </set>
  </array>
 </atominfo>
 <structure name="initialpos" >
  <crystal>
   <varray name="basis" >
    <v>       0.00000000       3.98158885       3.98158885 </v>
    <v>       3.98158885       0.00000000       3.98158885 </v>
    <v>       3.98158885       3.98158885       0.00000000 </v>
   </varray>
   <i name="volume">    126.24065213 </i>
   <varray name="rec_basis" >
    <v>      -0.12557801       0.12557801       0.12557801 </v>
    <v>       0.12557801      -0.12557801       0.12557801 </v>
    <v>       0.12557801       0.12557801      -0.12557801 </v>
   </varray>
  </crystal>
  <varray name="positions" >
   <v>       0.24999994       0.24999994       0.24999994 </v>
   <v>       0.74999981       0.74999981       0.74999981 </v>
   <v>       0.00000000       0.00000000       0.00000000 </v>
   <v>       0.49999987       0.49999987       0.49999987 </v>
  </varray>
 </structure>
 <calculation>
  <scstep>
   <time name="dav">    0.27    0.27</time>
   <time name="total">    0.33    0.33</time>
   <energy>
    <i name="alphaZ">    102.11721323 </i>
    <i name="ewald">  -2524.56922660 </i>
    <i name="hartreedc">  -1246.18677078 </i>
    <i name="XCdc">    133.51261103 </i>
    <i name="pawpsdc">   3274.07194199 </i>
    <i name="pawaedc">  -3416.58699786 </i>
    <i name="eentropy">     -0.00217390 </i>
    <i name="bandstr">   -204.57720779 </i>
    <i name="atom">   4266.28978799 </i>
    <i name="e_fr_energy">    384.06917730 </i>
    <i name="e_wo_entrp">    384.07135120 </i>
    <i name="e_0_energy">    384.07026425 </i>
   </energy>
  </scstep>
  <scstep>
   <time name="dav">    0.28    0.28</time>
   <time name="total">    0.28    0.28</time>
   <energy>
    <i name="e_fr_energy">     23.94467662 </i>
    <i name="e_wo_entrp">     23.94532910 </i>
    <i name="e_0_energy">     23.94500286 </i>
   </energy>
  </scstep>
  <scstep>
   <time name="dav">    0.36    0.36</time>
   <time name="total">    0.36    0.36</time>
   <energy>
    <i name="e_fr_energy">     -8.63540198 </i>
    <i name="e_wo_entrp">     -8.63540198 </i>
    <i name="e_0_energy">     -8.63540198 </i>
   </energy>
  </scstep>
  <scstep>
   <time name="dav">    0.35    0.35</time>
   <time name="total">    0.35    0.35</time>
   <energy>
    <i name="e_fr_energy">     -9.53492221 </i>
    <i name="e_wo_entrp">     -9.53492221 </i>
    <i name="e_0_energy">     -9.53492221 </i>
   </energy>
  </scstep>
  <scstep>
   <time name="dav">    0.39    0.39</time>
   <time name="total">    0.44    0.44</time>
   <energy>
    <i name="e_fr_energy">     -9.56776426 </i>
    <i name="e_wo_entrp">     -9.56776426 </i>
    <i name="e_0_energy">     -9.56776426 </i>
   </energy>
  </scstep>
  <scstep>
   <time name="dav">    0.37    0.37</time>
   <time name="total">    0.47    0.47</time>
   <energy>
    <i name="e_fr_energy">     -9.21998564 </i>
    <i name="e_wo_entrp">     -9.21990802 </i>
    <i name="e_0_energy">     -9.21994683 </i>
   </energy>
  </scstep>
  <scstep>
   <time name="dav">    0.33    0.33</time>
   <time name="total">    0.42    0.42</time>
   <energy>
    <i name="e_fr_energy">     -9.14451136 </i>
    <i name="e_wo_entrp">     -9.14435269 </i>
    <i name="e_0_energy">     -9.14443203 </i>
   </energy>
  </scstep>
  <scstep>
   <time name="dav">    0.33    0.33</time>
   <time name="total">    0.42    0.43</time>
   <energy>
    <i name="e_fr_energy">     -9.14687255 </i>
    <i name="e_wo_entrp">     -9.14671351 </i>
    <i name="e_0_energy">     -9.14679303 </i>
   </energy>
  </scstep>
  <scstep>
   <time name="dav">    0.33    0.33</time>
   <time name="total">    0.43    0.43</time>
   <energy>
    <i name="e_fr_energy">     -9.14662201 </i>
    <i name="e_wo_entrp">     -9.14646353 </i>
    <i name="e_0_energy">     -9.14654277 </i>
   </energy>
  </scstep>
  <scstep>
   <time name="dav">    0.35    0.35</time>
   <time name="total">    0.44    0.44</time>
   <energy>
    <i name="e_fr_energy">     -9.14668777 </i>
    <i name="e_wo_entrp">     -9.14652905 </i>
    <i name="e_0_energy">     -9.14660841 </i>
   </energy>
  </scstep>
  <scstep>
   <time name="dav">    0.36    0.36</time>
   <time name="total">    0.45    0.45</time>
   <energy>
    <i name="e_fr_energy">     -9.14668850 </i>
    <i name="e_wo_entrp">     -9.14652984 </i>
    <i name="e_0_energy">     -9.14660917 </i>
   </energy>
  </scstep>
  <scstep>
   <time name="dav">    0.33    0.33</time>
   <time name="total">    0.42    0.42</time>
   <energy>
    <i name="e_fr_energy">     -9.14668910 </i>
    <i name="e_wo_entrp">     -9.14653047 </i>
    <i name="e_0_energy">     -9.14660979 </i>
   </energy>
  </scstep>
  <scstep>
   <time name="dav">    0.39    0.39</time>
   <time name="total">    0.49    0.49</time>
   <energy>
    <i name="e_fr_energy">     -9.14668927 </i>
    <i name="e_wo_entrp">     -9.14653064 </i>
    <i name="e_0_energy">     -9.14660996 </i>
   </energy>
  </scstep>
  <scstep>
   <time name="dav">    0.29    0.29</time>
   <time name="total">    0.39    0.39</time>
   <energy>
    <i name="e_fr_energy">     -9.14668923 </i>
    <i name="e_wo_entrp">     -9.14653059 </i>
    <i name="e_0_energy">     -9.14660991 </i>
   </energy>
  </scstep>
  <scstep>
   <time name="dav">    0.27    0.27</time>
   <time name="total">    0.32    0.32</time>
   <energy>
    <i name="alphaZ">    102.11721323 </i>
    <i name="ewald">  -2524.56922660 </i>
    <i name="hartreedc">  -1240.90833772 </i>
    <i name="XCdc">    133.43940372 </i>
    <i name="pawpsdc">   3381.03693792 </i>
    <i name="pawaedc">  -3526.69376912 </i>
    <i name="eentropy">     -0.00015863 </i>
    <i name="bandstr">   -599.85854001 </i>
    <i name="atom">   4266.28978799 </i>
    <i name="e_fr_energy">     -9.14668923 </i>
    <i name="e_wo_entrp">     -9.14653059 </i>
    <i name="e_0_energy">     -9.14660991 </i>
   </energy>
  </scstep>
  <structure>
   <crystal>
    <varray name="basis" >
     <v>       0.00000000       3.98158885       3.98158885 </v>
     <v>       3.98158885       0.00000000       3.98158885 </v>
     <v>       3.98158885       3.98158885       0.00000000 </v>
    </varray>
    <i name="volume">    126.24065213 </i>
    <varray name="rec_basis" >
     <v>      -0.12557801       0.12557801       0.12557801 </v>
     <v>       0.12557801      -0.12557801       0.12557801 </v>
     <v>       0.12557801       0.12557801      -0.12557801 </v>
    </varray>
   </crystal>
   <varray name="positions" >
    <v>       0.24999994       0.24999994       0.24999994 </v>
    <v>       0.74999981       0.74999981       0.74999981 </v>
    <v>       0.00000000       0.00000000       0.00000000 </v>
    <v>       0.49999987       0.49999987       0.49999987 </v>
   </varray>
  </structure>
  <varray name="forces" >
   <v>       0.00000000      -0.00000000       0.00000000 </v>
   <v>      -0.00000000       0.00000000      -0.00000000 </v>
   <v>       0.00000000      -0.00000000      -0.00000000 </v>
   <v>       0.00000000      -0.00000000       0.00000000 </v>
  </varray>
  <varray name="stress" >
   <v>       0.14641886      -0.00000000       0.00000000 </v>
   <v>      -0.00000000       0.14641886       0.00000000 </v>
   <v>       0.00000000       0.00000000       0.14641886 </v>
  </varray>
  <energy>
   <i name="e_fr_energy">     -9.14668923 </i>
   <i name="e_wo_entrp">     -9.14660991 </i>
   <i name="e_0_energy">     -0.00015863 </i>
  </energy>
  <time name="totalsc">    6.41    6.43</time>
  <eigenvalues>
   <array>
    <dimension dim="1">band</dimension>
    <dimension dim="2">kpoint</dimension>
    <dimension dim="3">spin</dimension>
    <field>eigene</field>
    <field>occ</field>
    <set>
     <set comment="spin 1">
      <set comment="kpoint 1">
       <r>  -29.0247    1.0000 </r>
       <r>  -22.2492    1.0000 </r>
       <r>  -22.2492    1.0000 </r>
       <r>  -22.2492    1.0000 </r>
       <r>  -22.2407    1.0000 </r>
       <r>  -22.2406    1.0000 </r>
       <r>  -22.2406    1.0000 </r>
       <r>  -19.1369    1.0000 </r>
       <r>  -19.1369    1.0000 </r>
       <r>  -19.1369    1.0000 </r>
       <r>  -19.1338    1.0000 </r>
       <r>  -19.1338    1.0000 </r>
       <r>  -12.5396    1.0000 </r>
       <r>  -12.5396    1.0000 </r>
       <r>  -12.5396    1.0000 </r>
       <r>   -7.3610    1.0000 </r>
       <r>    2.0289    1.0000 </r>
       <r>    2.1545    0.6734 </r>
       <r>    2.1545    0.6734 </r>
       <r>    2.1545    0.6734 </r>
       <r>    4.8191    0.0000 </r>
       <r>    4.8191    0.0000 </r>
       <r>    4.8191    0.0000 </r>
      </set>
      <set comment="kpoint 2">
       <r>  -29.0247    1.0000 </r>
       <r>  -22.2488    1.0000 </r>
       <r>  -22.2488    1.0000 </r>
       <r>  -22.2488    1.0000 </r>
       <r>  -22.2410    1.0000 </r>
       <r>  -22.2410    1.0000 </r>
       <r>  -22.2410    1.0000 </r>
       <r>  -19.1369    1.0000 </r>
       <r>  -19.1368    1.0000 </r>
       <r>  -19.1368    1.0000 </r>
       <r>  -19.1337    1.0000 </r>
       <r>  -19.1337    1.0000 </r>
       <r>  -12.5423    1.0000 </r>
       <r>  -12.5396    1.0000 </r>
       <r>  -12.5396    1.0000 </r>
       <r>   -7.3344    1.0000 </r>
       <r>    1.2056    1.0000 </r>
       <r>    2.0635    0.9987 </r>
       <r>    2.0636    0.9987 </r>
       <r>    2.9316    0.0000 </r>
       <r>    4.9095    0.0000 </r>
       <r>    4.9752    0.0000 </r>
       <r>    4.9752    0.0000 </r>
      </set>
      <set comment="kpoint 3">
       <r>  -29.0246    1.0000 </r>
       <r>  -22.2479    1.0000 </r>
       <r>  -22.2479    1.0000 </r>
       <r>  -22.2479    1.0000 </r>
       <r>  -22.2419    1.0000 </r>
       <r>  -22.2419    1.0000 </r>
       <r>  -22.2419    1.0000 </r>
       <r>  -19.1372    1.0000 </r>
       <r>  -19.1367    1.0000 </r>
       <r>  -19.1367    1.0000 </r>
       <r>  -19.1337    1.0000 </r>
       <r>  -19.1337    1.0000 </r>
       <r>  -12.5488    1.0000 </r>
       <r>  -12.5397    1.0000 </r>
       <r>  -12.5397    1.0000 </r>
       <r>   -7.2689    1.0000 </r>
       <r>    0.4732    1.0000 </r>
       <r>    1.8745    1.0000 </r>
       <r>    1.8745    1.0000 </r>
       <r>    3.3651    0.0000 </r>
       <r>    5.3204    0.0000 </r>
       <r>    5.3204    0.0000 </r>
       <r>    5.5098    0.0000 </r>
      </set>
      <set comment="kpoint 4">
       <r>  -29.0246    1.0000 </r>
       <r>  -22.2466    1.0000 </r>
       <r>  -22.2466    1.0000 </r>
       <r>  -22.2465    1.0000 </r>
       <r>  -22.2433    1.0000 </r>
       <r>  -22.2433    1.0000 </r>
       <r>  -22.2433    1.0000 </r>
       <r>  -19.1374    1.0000 </r>
       <r>  -19.1367    1.0000 </r>
       <r>  -19.1367    1.0000 </r>
       <r>  -19.1338    1.0000 </r>
       <r>  -19.1338    1.0000 </r>
       <r>  -12.5552    1.0000 </r>
       <r>  -12.5398    1.0000 </r>
       <r>  -12.5397    1.0000 </r>
       <r>   -7.2014    1.0000 </r>
       <r>   -0.0106    1.0000 </r>
       <r>    1.7150    1.0000 </r>
       <r>    1.7150    1.0000 </r>
       <r>    3.4657    0.0000 </r>
       <r>    5.6361    0.0000 </r>
       <r>    5.6361    0.0000 </r>
       <r>    6.4158    0.0000 </r>
      </set>
      <set comment="kpoint 5">
       <r>  -29.0245    1.0000 </r>
       <r>  -22.2453    1.0000 </r>
       <r>  -22.2452    1.0000 </r>
       <r>  -22.2452    1.0000 </r>
       <r>  -22.2447    1.0000 </r>
       <r>  -22.2447    1.0000 </r>
       <r>  -22.2445    1.0000 </r>
       <r>  -19.1375    1.0000 </r>
       <r>  -19.1367    1.0000 </r>
       <r>  -19.1367    1.0000 </r>
       <r>  -19.1338    1.0000 </r>
       <r>  -19.1338    1.0000 </r>
       <r>  -12.5579    1.0000 </r>
       <r>  -12.5398    1.0000 </r>
       <r>  -12.5398    1.0000 </r>
       <r>   -7.1728    1.0000 </r>
       <r>   -0.1802    1.0000 </r>
       <r>    1.6551    1.0000 </r>
       <r>    1.6551    1.0000 </r>
       <r>    3.4875    0.0000 </r>
       <r>    5.7634    0.0000 </r>
       <r>    5.7634    0.0000 </r>
       <r>    6.3760    0.0000 </r>
      </set>
      <set comment="kpoint 6">
       <r>  -29.0247    1.0000 </r>
       <r>  -22.2493    1.0000 </r>
       <r>  -22.2493    1.0000 </r>
       <r>  -22.2476    1.0000 </r>
       <r>  -22.2421    1.0000 </r>
       <r>  -22.2405    1.0000 </r>
       <r>  -22.2405    1.0000 </r>
       <r>  -19.1370    1.0000 </r>
       <r>  -19.1368    1.0000 </r>
       <r>  -19.1368    1.0000 </r>
       <r>  -19.1338    1.0000 </r>
       <r>  -19.1337    1.0000 </r>
       <r>  -12.5420    1.0000 </r>
       <r>  -12.5402    1.0000 </r>
       <r>  -12.5402    1.0000 </r>
       <r>   -7.3265    1.0000 </r>
       <r>    1.1321    1.0000 </r>
       <r>    1.9859    1.0000 </r>
       <r>    1.9859    1.0000 </r>
       <r>    3.1399    0.0000 </r>
       <r>    4.5208    0.0000 </r>
       <r>    5.2214    0.0000 </r>
       <r>    5.2214    0.0000 </r>
      </set>
      <set comment="kpoint 7">
       <r>  -29.0246    1.0000 </r>
       <r>  -22.2491    1.0000 </r>
       <r>  -22.2491    1.0000 </r>
       <r>  -22.2460    1.0000 </r>
       <r>  -22.2437    1.0000 </r>
       <r>  -22.2408    1.0000 </r>
       <r>  -22.2408    1.0000 </r>
       <r>  -19.1372    1.0000 </r>
       <r>  -19.1367    1.0000 </r>
       <r>  -19.1367    1.0000 </r>
       <r>  -19.1338    1.0000 </r>
       <r>  -19.1336    1.0000 </r>
       <r>  -12.5467    1.0000 </r>
       <r>  -12.5406    1.0000 </r>
       <r>  -12.5402    1.0000 </r>
       <r>   -7.2763    1.0000 </r>
       <r>    0.6172    1.0000 </r>
       <r>    1.7881    1.0000 </r>
       <r>    1.8180    1.0000 </r>
       <r>    3.6086    0.0000 </r>
       <r>    4.5399    0.0000 </r>
       <r>    5.6218    0.0000 </r>
       <r>    5.6243    0.0000 </r>
      </set>
      <set comment="kpoint 8">
       <r>  -29.0246    1.0000 </r>
       <r>  -22.2482    1.0000 </r>
       <r>  -22.2482    1.0000 </r>
       <r>  -22.2455    1.0000 </r>
       <r>  -22.2442    1.0000 </r>
       <r>  -22.2416    1.0000 </r>
       <r>  -22.2416    1.0000 </r>
       <r>  -19.1374    1.0000 </r>
       <r>  -19.1367    1.0000 </r>
       <r>  -19.1366    1.0000 </r>
       <r>  -19.1338    1.0000 </r>
       <r>  -19.1336    1.0000 </r>
       <r>  -12.5527    1.0000 </r>
       <r>  -12.5407    1.0000 </r>
       <r>  -12.5406    1.0000 </r>
       <r>   -7.2119    1.0000 </r>
       <r>    0.1600    1.0000 </r>
       <r>    1.5399    1.0000 </r>
       <r>    1.6707    1.0000 </r>
       <r>    3.7851    0.0000 </r>
       <r>    5.0901    0.0000 </r>
       <r>    5.7606    0.0000 </r>
       <r>    5.8908    0.0000 </r>
      </set>
      <set comment="kpoint 9">
       <r>  -29.0245    1.0000 </r>
       <r>  -22.2473    1.0000 </r>
       <r>  -22.2469    1.0000 </r>
       <r>  -22.2468    1.0000 </r>
       <r>  -22.2430    1.0000 </r>
       <r>  -22.2429    1.0000 </r>
       <r>  -22.2426    1.0000 </r>
       <r>  -19.1374    1.0000 </r>
       <r>  -19.1368    1.0000 </r>
       <r>  -19.1366    1.0000 </r>
       <r>  -19.1338    1.0000 </r>
       <r>  -19.1337    1.0000 </r>
       <r>  -12.5563    1.0000 </r>
       <r>  -12.5413    1.0000 </r>
       <r>  -12.5404    1.0000 </r>
       <r>   -7.1712    1.0000 </r>
       <r>   -0.0718    1.0000 </r>
       <r>    1.3748    1.0000 </r>
       <r>    1.6109    1.0000 </r>
       <r>    3.8650    0.0000 </r>
       <r>    5.2668    0.0000 </r>
       <r>    5.9532    0.0000 </r>
       <r>    6.3125    0.0000 </r>
      </set>
      <set comment="kpoint 10">
       <r>  -29.0245    1.0000 </r>
       <r>  -22.2485    1.0000 </r>
       <r>  -22.2453    1.0000 </r>
       <r>  -22.2453    1.0000 </r>
       <r>  -22.2446    1.0000 </r>
       <r>  -22.2445    1.0000 </r>
       <r>  -22.2413    1.0000 </r>
       <r>  -19.1374    1.0000 </r>
       <r>  -19.1368    1.0000 </r>
       <r>  -19.1366    1.0000 </r>
       <r>  -19.1338    1.0000 </r>
       <r>  -19.1337    1.0000 </r>
       <r>  -12.5555    1.0000 </r>
       <r>  -12.5418    1.0000 </r>
       <r>  -12.5398    1.0000 </r>
       <r>   -7.1796    1.0000 </r>
       <r>   -0.0231    1.0000 </r>
       <r>    1.3527    1.0000 </r>
       <r>    1.6615    1.0000 </r>
       <r>    3.8982    0.0000 </r>
       <r>    5.3232    0.0000 </r>
       <r>    5.7680    0.0000 </r>
       <r>    6.4182    0.0000 </r>
      </set>
      <set comment="kpoint 11">
       <r>  -29.0246    1.0000 </r>
       <r>  -22.2493    1.0000 </r>
       <r>  -22.2463    1.0000 </r>
       <r>  -22.2462    1.0000 </r>
       <r>  -22.2435    1.0000 </r>
       <r>  -22.2435    1.0000 </r>
       <r>  -22.2405    1.0000 </r>
       <r>  -19.1373    1.0000 </r>
       <r>  -19.1368    1.0000 </r>
       <r>  -19.1367    1.0000 </r>
       <r>  -19.1338    1.0000 </r>
       <r>  -19.1337    1.0000 </r>
       <r>  -12.5509    1.0000 </r>
       <r>  -12.5418    1.0000 </r>
       <r>  -12.5393    1.0000 </r>
       <r>   -7.2318    1.0000 </r>
       <r>    0.2888    1.0000 </r>
       <r>    1.4932    1.0000 </r>
       <r>    1.8065    1.0000 </r>
       <r>    3.8232    0.0000 </r>
       <r>    5.2896    0.0000 </r>
       <r>    5.3966    0.0000 </r>
       <r>    5.6934    0.0000 </r>
      </set>
      <set comment="kpoint 12">
       <r>  -29.0247    1.0000 </r>
       <r>  -22.2494    1.0000 </r>
       <r>  -22.2478    1.0000 </r>
       <r>  -22.2477    1.0000 </r>
       <r>  -22.2420    1.0000 </r>
       <r>  -22.2420    1.0000 </r>
       <r>  -22.2404    1.0000 </r>
       <r>  -19.1371    1.0000 </r>
       <r>  -19.1368    1.0000 </r>
       <r>  -19.1368    1.0000 </r>
       <r>  -19.1338    1.0000 </r>
       <r>  -19.1337    1.0000 </r>
       <r>  -12.5454    1.0000 </r>
       <r>  -12.5409    1.0000 </r>
       <r>  -12.5392    1.0000 </r>
       <r>   -7.2958    1.0000 </r>
       <r>    0.7699    1.0000 </r>
       <r>    1.7834    1.0000 </r>
       <r>    1.9797    1.0000 </r>
       <r>    3.4428    0.0000 </r>
       <r>    4.8681    0.0000 </r>
       <r>    5.0606    0.0000 </r>
       <r>    5.5057    0.0000 </r>
      </set>
      <set comment="kpoint 13">
       <r>  -29.0246    1.0000 </r>
       <r>  -22.2496    1.0000 </r>
       <r>  -22.2496    1.0000 </r>
       <r>  -22.2458    1.0000 </r>
       <r>  -22.2439    1.0000 </r>
       <r>  -22.2403    1.0000 </r>
       <r>  -22.2403    1.0000 </r>
       <r>  -19.1374    1.0000 </r>
       <r>  -19.1366    1.0000 </r>
       <r>  -19.1366    1.0000 </r>
       <r>  -19.1338    1.0000 </r>
       <r>  -19.1335    1.0000 </r>
       <r>  -12.5473    1.0000 </r>
       <r>  -12.5417    1.0000 </r>
       <r>  -12.5417    1.0000 </r>
       <r>   -7.2499    1.0000 </r>
       <r>    0.4948    1.0000 </r>
       <r>    1.6860    1.0000 </r>
       <r>    1.6860    1.0000 </r>
       <r>    3.8538    0.0000 </r>
       <r>    4.0152    0.0000 </r>
       <r>    6.0055    0.0000 </r>
       <r>    6.1861    0.0000 </r>
      </set>
      <set comment="kpoint 14">
       <r>  -29.0245    1.0000 </r>
       <r>  -22.2494    1.0000 </r>
       <r>  -22.2494    1.0000 </r>
       <r>  -22.2476    1.0000 </r>
       <r>  -22.2420    1.0000 </r>
       <r>  -22.2405    1.0000 </r>
       <r>  -22.2405    1.0000 </r>
       <r>  -19.1376    1.0000 </r>
       <r>  -19.1366    1.0000 </r>
       <r>  -19.1366    1.0000 </r>
       <r>  -19.1338    1.0000 </r>
       <r>  -19.1335    1.0000 </r>
       <r>  -12.5508    1.0000 </r>
       <r>  -12.5426    1.0000 </r>
       <r>  -12.5421    1.0000 </r>
       <r>   -7.2047    1.0000 </r>
       <r>    0.2773    1.0000 </r>
       <r>    1.4095    1.0000 </r>
       <r>    1.5648    1.0000 </r>
       <r>    3.9023    0.0000 </r>
       <r>    4.2626    0.0000 </r>
       <r>    5.7953    0.0000 </r>
       <r>    6.4582    0.0000 </r>
      </set>
      <set comment="kpoint 15">
       <r>  -29.0245    1.0000 </r>
       <r>  -22.2493    1.0000 </r>
       <r>  -22.2485    1.0000 </r>
       <r>  -22.2484    1.0000 </r>
       <r>  -22.2414    1.0000 </r>
       <r>  -22.2413    1.0000 </r>
       <r>  -22.2406    1.0000 </r>
       <r>  -19.1375    1.0000 </r>
       <r>  -19.1368    1.0000 </r>
       <r>  -19.1365    1.0000 </r>
       <r>  -19.1337    1.0000 </r>
       <r>  -19.1335    1.0000 </r>
       <r>  -12.5531    1.0000 </r>
       <r>  -12.5444    1.0000 </r>
       <r>  -12.5418    1.0000 </r>
       <r>   -7.1670    1.0000 </r>
       <r>    0.1705    1.0000 </r>
       <r>    1.0243    1.0000 </r>
       <r>    1.5125    1.0000 </r>
       <r>    3.9951    0.0000 </r>
       <r>    5.1138    0.0000 </r>
       <r>    5.5090    0.0000 </r>
       <r>    6.4564    0.0000 </r>
      </set>
      <set comment="kpoint 16">
       <r>  -29.0245    1.0000 </r>
       <r>  -22.2500    1.0000 </r>
       <r>  -22.2471    1.0000 </r>
       <r>  -22.2471    1.0000 </r>
       <r>  -22.2428    1.0000 </r>
       <r>  -22.2427    1.0000 </r>
       <r>  -22.2398    1.0000 </r>
       <r>  -19.1373    1.0000 </r>
       <r>  -19.1370    1.0000 </r>
       <r>  -19.1366    1.0000 </r>
       <r>  -19.1337    1.0000 </r>
       <r>  -19.1337    1.0000 </r>
       <r>  -12.5529    1.0000 </r>
       <r>  -12.5460    1.0000 </r>
       <r>  -12.5408    1.0000 </r>
       <r>   -7.1594    1.0000 </r>
       <r>    0.1844    1.0000 </r>
       <r>    0.8230    1.0000 </r>
       <r>    1.5512    1.0000 </r>
       <r>    4.2588    0.0000 </r>
       <r>    5.2927    0.0000 </r>
       <r>    6.1542    0.0000 </r>
       <r>    6.2324    0.0000 </r>
      </set>
      <set comment="kpoint 17">
       <r>  -29.0245    1.0000 </r>
       <r>  -22.2500    1.0000 </r>
       <r>  -22.2454    1.0000 </r>
       <r>  -22.2453    1.0000 </r>
       <r>  -22.2445    1.0000 </r>
       <r>  -22.2444    1.0000 </r>
       <r>  -22.2398    1.0000 </r>
       <r>  -19.1372    1.0000 </r>
       <r>  -19.1369    1.0000 </r>
       <r>  -19.1366    1.0000 </r>
       <r>  -19.1338    1.0000 </r>
       <r>  -19.1336    1.0000 </r>
       <r>  -12.5519    1.0000 </r>
       <r>  -12.5451    1.0000 </r>
       <r>  -12.5398    1.0000 </r>
       <r>   -7.1864    1.0000 </r>
       <r>    0.2081    1.0000 </r>
       <r>    1.0128    1.0000 </r>
       <r>    1.6679    1.0000 </r>
       <r>    4.4155    0.0000 </r>
       <r>    5.2818    0.0000 </r>
       <r>    5.5183    0.0000 </r>
       <r>    5.7738    0.0000 </r>
      </set>
      <set comment="kpoint 18">
       <r>  -29.0245    1.0000 </r>
       <r>  -22.2499    1.0000 </r>
       <r>  -22.2499    1.0000 </r>
       <r>  -22.2494    1.0000 </r>
       <r>  -22.2403    1.0000 </r>
       <r>  -22.2400    1.0000 </r>
       <r>  -22.2400    1.0000 </r>
       <r>  -19.1379    1.0000 </r>
       <r>  -19.1365    1.0000 </r>
       <r>  -19.1365    1.0000 </r>
       <r>  -19.1338    1.0000 </r>
       <r>  -19.1334    1.0000 </r>
       <r>  -12.5518    1.0000 </r>
       <r>  -12.5432    1.0000 </r>
       <r>  -12.5432    1.0000 </r>
       <r>   -7.1841    1.0000 </r>
       <r>    0.2228    1.0000 </r>
       <r>    1.4660    1.0000 </r>
       <r>    1.4660    1.0000 </r>
       <r>    3.6468    0.0000 </r>
       <r>    3.7694    0.0000 </r>
       <r>    6.4086    0.0000 </r>
       <r>    6.9999    0.0000 </r>
      </set>
      <set comment="kpoint 19">
       <r>  -29.0245    1.0000 </r>
       <r>  -22.2505    1.0000 </r>
       <r>  -22.2496    1.0000 </r>
       <r>  -22.2496    1.0000 </r>
       <r>  -22.2403    1.0000 </r>
       <r>  -22.2403    1.0000 </r>
       <r>  -22.2392    1.0000 </r>
       <r>  -19.1379    1.0000 </r>
       <r>  -19.1365    1.0000 </r>
       <r>  -19.1364    1.0000 </r>
       <r>  -19.1337    1.0000 </r>
       <r>  -19.1334    1.0000 </r>
       <r>  -12.5525    1.0000 </r>
       <r>  -12.5448    1.0000 </r>
       <r>  -12.5432    1.0000 </r>
       <r>   -7.1624    1.0000 </r>
       <r>    0.2245    1.0000 </r>
       <r>    1.1452    1.0000 </r>
       <r>    1.4236    1.0000 </r>
       <r>    3.6721    0.0000 </r>
       <r>    4.0457    0.0000 </r>
       <r>    6.5023    0.0000 </r>
       <r>    7.0487    0.0000 </r>
      </set>
      <set comment="kpoint 20">
       <r>  -29.0245    1.0000 </r>
       <r>  -22.2507    1.0000 </r>
       <r>  -22.2487    1.0000 </r>
       <r>  -22.2486    1.0000 </r>
       <r>  -22.2413    1.0000 </r>
       <r>  -22.2412    1.0000 </r>
       <r>  -22.2391    1.0000 </r>
       <r>  -19.1376    1.0000 </r>
       <r>  -19.1368    1.0000 </r>
       <r>  -19.1365    1.0000 </r>
       <r>  -19.1337    1.0000 </r>
       <r>  -19.1335    1.0000 </r>
       <r>  -12.5507    1.0000 </r>
       <r>  -12.5483    1.0000 </r>
       <r>  -12.5423    1.0000 </r>
       <r>   -7.1522    1.0000 </r>
       <r>    0.3971    1.0000 </r>
       <r>    0.6353    1.0000 </r>
       <r>    1.4562    1.0000 </r>
       <r>    3.8926    0.0000 </r>
       <r>    4.9999    0.0000 </r>
       <r>    6.1828    0.0000 </r>
       <r>    6.7131    0.0000 </r>
      </set>
      <set comment="kpoint 21">
       <r>  -29.0245    1.0000 </r>
       <r>  -22.2509    1.0000 </r>
       <r>  -22.2500    1.0000 </r>
       <r>  -22.2500    1.0000 </r>
       <r>  -22.2399    1.0000 </r>
       <r>  -22.2399    1.0000 </r>
       <r>  -22.2387    1.0000 </r>
       <r>  -19.1380    1.0000 </r>
       <r>  -19.1364    1.0000 </r>
       <r>  -19.1364    1.0000 </r>
       <r>  -19.1337    1.0000 </r>
       <r>  -19.1333    1.0000 </r>
       <r>  -12.5534    1.0000 </r>
       <r>  -12.5438    1.0000 </r>
       <r>  -12.5438    1.0000 </r>
       <r>   -7.1603    1.0000 </r>
       <r>    0.1744    1.0000 </r>
       <r>    1.3892    1.0000 </r>
       <r>    1.3892    1.0000 </r>
       <r>    3.5167    0.0000 </r>
       <r>    3.5568    0.0000 </r>
       <r>    7.1117    0.0000 </r>
       <r>    7.3030    0.0000 </r>
      </set>
      <set comment="kpoint 22">
       <r>  -29.0246    1.0000 </r>
       <r>  -22.2497    1.0000 </r>
       <r>  -22.2481    1.0000 </r>
       <r>  -22.2456    1.0000 </r>
       <r>  -22.2441    1.0000 </r>
       <r>  -22.2418    1.0000 </r>
       <r>  -22.2401    1.0000 </r>
       <r>  -19.1374    1.0000 </r>
       <r>  -19.1367    1.0000 </r>
       <r>  -19.1367    1.0000 </r>
       <r>  -19.1338    1.0000 </r>
       <r>  -19.1336    1.0000 </r>
       <r>  -12.5497    1.0000 </r>
       <r>  -12.5427    1.0000 </r>
       <r>  -12.5403    1.0000 </r>
       <r>   -7.2289    1.0000 </r>
       <r>    0.3559    1.0000 </r>
       <r>    1.4316    1.0000 </r>
       <r>    1.7082    1.0000 </r>
       <r>    4.0894    0.0000 </r>
       <r>    4.5100    0.0000 </r>
       <r>    5.5709    0.0000 </r>
       <r>    6.0033    0.0000 </r>
      </set>
      <set comment="kpoint 23">
       <r>  -29.0245    1.0000 </r>
       <r>  -22.2497    1.0000 </r>
       <r>  -22.2474    1.0000 </r>
       <r>  -22.2466    1.0000 </r>
       <r>  -22.2432    1.0000 </r>
       <r>  -22.2423    1.0000 </r>
       <r>  -22.2402    1.0000 </r>
       <r>  -19.1374    1.0000 </r>
       <r>  -19.1368    1.0000 </r>
       <r>  -19.1366    1.0000 </r>
       <r>  -19.1338    1.0000 </r>
       <r>  -19.1336    1.0000 </r>
       <r>  -12.5528    1.0000 </r>
       <r>  -12.5439    1.0000 </r>
       <r>  -12.5408    1.0000 </r>
       <r>   -7.1807    1.0000 </r>
       <r>    0.1610    1.0000 </r>
       <r>    1.1262    1.0000 </r>
       <r>    1.5551    1.0000 </r>
       <r>    4.3207    0.0000 </r>
       <r>    5.0444    0.0000 </r>
       <r>    5.3326    0.0000 </r>
       <r>    6.3260    0.0000 </r>
      </set>
      <set comment="kpoint 24">
       <r>  -29.0245    1.0000 </r>
       <r>  -22.2491    1.0000 </r>
       <r>  -22.2485    1.0000 </r>
       <r>  -22.2451    1.0000 </r>
       <r>  -22.2448    1.0000 </r>
       <r>  -22.2410    1.0000 </r>
       <r>  -22.2409    1.0000 </r>
       <r>  -19.1373    1.0000 </r>
       <r>  -19.1369    1.0000 </r>
       <r>  -19.1365    1.0000 </r>
       <r>  -19.1337    1.0000 </r>
       <r>  -19.1337    1.0000 </r>
       <r>  -12.5542    1.0000 </r>
       <r>  -12.5442    1.0000 </r>
       <r>  -12.5412    1.0000 </r>
       <r>   -7.1605    1.0000 </r>
       <r>    0.0898    1.0000 </r>
       <r>    1.0148    1.0000 </r>
       <r>    1.4898    1.0000 </r>
       <r>    4.4000    0.0000 </r>
       <r>    4.9212    0.0000 </r>
       <r>    6.1280    0.0000 </r>
       <r>    6.2599    0.0000 </r>
      </set>
      <set comment="kpoint 25">
       <r>  -29.0245    1.0000 </r>
       <r>  -22.2501    1.0000 </r>
       <r>  -22.2492    1.0000 </r>
       <r>  -22.2484    1.0000 </r>
       <r>  -22.2415    1.0000 </r>
       <r>  -22.2404    1.0000 </r>
       <r>  -22.2398    1.0000 </r>
       <r>  -19.1377    1.0000 </r>
       <r>  -19.1367    1.0000 </r>
       <r>  -19.1365    1.0000 </r>
       <r>  -19.1337    1.0000 </r>
       <r>  -19.1335    1.0000 </r>
       <r>  -12.5518    1.0000 </r>
       <r>  -12.5445    1.0000 </r>
       <r>  -12.5427    1.0000 </r>
       <r>   -7.1735    1.0000 </r>
       <r>    0.2429    1.0000 </r>
       <r>    1.1753    1.0000 </r>
       <r>    1.3698    1.0000 </r>
       <r>    4.1884    0.0000 </r>
       <r>    4.2421    0.0000 </r>
       <r>    5.7300    0.0000 </r>
       <r>    6.9332    0.0000 </r>
      </set>
      <set comment="kpoint 26">
       <r>  -29.0245    1.0000 </r>
       <r>  -22.2505    1.0000 </r>
       <r>  -22.2496    1.0000 </r>
       <r>  -22.2469    1.0000 </r>
       <r>  -22.2430    1.0000 </r>
       <r>  -22.2400    1.0000 </r>
       <r>  -22.2395    1.0000 </r>
       <r>  -19.1375    1.0000 </r>
       <r>  -19.1369    1.0000 </r>
       <r>  -19.1365    1.0000 </r>
       <r>  -19.1337    1.0000 </r>
       <r>  -19.1335    1.0000 </r>
       <r>  -12.5512    1.0000 </r>
       <r>  -12.5468    1.0000 </r>
       <r>  -12.5429    1.0000 </r>
       <r>   -7.1535    1.0000 </r>
       <r>    0.3467    1.0000 </r>
       <r>    0.7828    1.0000 </r>
       <r>    1.2856    1.0000 </r>
       <r>    4.3301    0.0000 </r>
       <r>    5.0706    0.0000 </r>
       <r>    5.5142    0.0000 </r>
       <r>    6.3697    0.0000 </r>
      </set>
      <set comment="kpoint 27">
       <r>  -29.0245    1.0000 </r>
       <r>  -22.2504    1.0000 </r>
       <r>  -22.2489    1.0000 </r>
       <r>  -22.2451    1.0000 </r>
       <r>  -22.2448    1.0000 </r>
       <r>  -22.2408    1.0000 </r>
       <r>  -22.2395    1.0000 </r>
       <r>  -19.1372    1.0000 </r>
       <r>  -19.1371    1.0000 </r>
       <r>  -19.1365    1.0000 </r>
       <r>  -19.1337    1.0000 </r>
       <r>  -19.1336    1.0000 </r>
       <r>  -12.5509    1.0000 </r>
       <r>  -12.5475    1.0000 </r>
       <r>  -12.5419    1.0000 </r>
       <r>   -7.1565    1.0000 </r>
       <r>    0.3364    1.0000 </r>
       <r>    0.7161    1.0000 </r>
       <r>    1.3799    1.0000 </r>
       <r>    4.6327    0.0000 </r>
       <r>    5.2217    0.0000 </r>
       <r>    5.3763    0.0000 </r>
       <r>    6.1946    0.0000 </r>
      </set>
      <set comment="kpoint 28">
       <r>  -29.0245    1.0000 </r>
       <r>  -22.2509    1.0000 </r>
       <r>  -22.2500    1.0000 </r>
       <r>  -22.2486    1.0000 </r>
       <r>  -22.2414    1.0000 </r>
       <r>  -22.2397    1.0000 </r>
       <r>  -22.2389    1.0000 </r>
       <r>  -19.1378    1.0000 </r>
       <r>  -19.1366    1.0000 </r>
       <r>  -19.1364    1.0000 </r>
       <r>  -19.1337    1.0000 </r>
       <r>  -19.1334    1.0000 </r>
       <r>  -12.5520    1.0000 </r>
       <r>  -12.5452    1.0000 </r>
       <r>  -12.5442    1.0000 </r>
       <r>   -7.1542    1.0000 </r>
       <r>    0.2869    1.0000 </r>
       <r>    1.0855    1.0000 </r>
       <r>    1.1856    1.0000 </r>
       <r>    4.0743    0.0000 </r>
       <r>    4.0814    0.0000 </r>
       <r>    6.4229    0.0000 </r>
       <r>    6.7293    0.0000 </r>
      </set>
      <set comment="kpoint 29">
       <r>  -29.0245    1.0000 </r>
       <r>  -22.2509    1.0000 </r>
       <r>  -22.2500    1.0000 </r>
       <r>  -22.2450    1.0000 </r>
       <r>  -22.2450    1.0000 </r>
       <r>  -22.2395    1.0000 </r>
       <r>  -22.2392    1.0000 </r>
       <r>  -19.1372    1.0000 </r>
       <r>  -19.1372    1.0000 </r>
       <r>  -19.1364    1.0000 </r>
       <r>  -19.1336    1.0000 </r>
       <r>  -19.1335    1.0000 </r>
       <r>  -12.5486    1.0000 </r>
       <r>  -12.5486    1.0000 </r>
       <r>  -12.5445    1.0000 </r>
       <r>   -7.1480    1.0000 </r>
       <r>    0.6129    1.0000 </r>
       <r>    0.6129    1.0000 </r>
       <r>    1.0229    1.0000 </r>
       <r>    4.9343    0.0000 </r>
       <r>    5.2869    0.0000 </r>
       <r>    5.2869    0.0000 </r>
       <r>    5.5007    0.0000 </r>
      </set>
     </set>
    </set>
   </array>
  </eigenvalues>
  <separator name="orbital magnetization" >
   <v name="MAGDIPOLOUT">      0.00000000      0.00000000      0.00000000</v>
  </separator>
  <dos>
   <i name="efermi">      2.17035810 </i>
   <total>
    <array>
     <dimension dim="1">gridpoints</dimension>
     <dimension dim="2">spin</dimension>
     <field>energy</field>
     <field>total</field>
     <field>integrated</field>
     <set>
      <set comment="spin 1">
       <r>   -30.8411     0.0000     0.0000 </r>
       <r>   -30.7079     0.0000     0.0000 </r>
       <r>   -30.5747     0.0000     0.0000 </r>
       <r>   -30.4415     0.0000     0.0000 </r>
       <r>   -30.3083     0.0000     0.0000 </r>
       <r>   -30.1751     0.0000     0.0000 </r>
       <r>   -30.0419     0.0000     0.0000 </r>
       <r>   -29.9087     0.0000     0.0000 </r>
       <r>   -29.7755     0.0000     0.0000 </r>
       <r>   -29.6423     0.0000     0.0000 </r>
       <r>   -29.5091     0.0000     0.0000 </r>
       <r>   -29.3759     0.0000     0.0000 </r>
       <r>   -29.2427     0.0000     0.0000 </r>
       <r>   -29.1095     0.1221     0.0163 </r>
       <r>   -28.9763    13.5984     1.8276 </r>
       <r>   -28.8431     1.2943     2.0000 </r>
       <r>   -28.7099     0.0000     2.0000 </r>
       <r>   -28.5767     0.0000     2.0000 </r>
       <r>   -28.4435     0.0000     2.0000 </r>
       <r>   -28.3103     0.0000     2.0000 </r>
       <r>   -28.1771     0.0000     2.0000 </r>
       <r>   -28.0439     0.0000     2.0000 </r>
       <r>   -27.9107     0.0000     2.0000 </r>
       <r>   -27.7775     0.0000     2.0000 </r>
       <r>   -27.6443     0.0000     2.0000 </r>
       <r>   -27.5111     0.0000     2.0000 </r>
       <r>   -27.3779     0.0000     2.0000 </r>
       <r>   -27.2447     0.0000     2.0000 </r>
       <r>   -27.1115     0.0000     2.0000 </r>
       <r>   -26.9783     0.0000     2.0000 </r>
       <r>   -26.8451     0.0000     2.0000 </r>
       <r>   -26.7119     0.0000     2.0000 </r>
       <r>   -26.5787     0.0000     2.0000 </r>
       <r>   -26.4455     0.0000     2.0000 </r>
       <r>   -26.3123     0.0000     2.0000 </r>
       <r>   -26.1791     0.0000     2.0000 </r>
       <r>   -26.0459     0.0000     2.0000 </r>
       <r>   -25.9126     0.0000     2.0000 </r>
       <r>   -25.7794     0.0000     2.0000 </r>
       <r>   -25.6462     0.0000     2.0000 </r>
       <r>   -25.5130     0.0000     2.0000 </r>
       <r>   -25.3798     0.0000     2.0000 </r>
       <r>   -25.2466     0.0000     2.0000 </r>
       <r>   -25.1134     0.0000     2.0000 </r>
       <r>   -24.9802     0.0000     2.0000 </r>
       <r>   -24.8470     0.0000     2.0000 </r>
       <r>   -24.7138     0.0000     2.0000 </r>
       <r>   -24.5806     0.0000     2.0000 </r>
       <r>   -24.4474     0.0000     2.0000 </r>
       <r>   -24.3142     0.0000     2.0000 </r>
       <r>   -24.1810     0.0000     2.0000 </r>
       <r>   -24.0478     0.0000     2.0000 </r>
       <r>   -23.9146     0.0000     2.0000 </r>
       <r>   -23.7814     0.0000     2.0000 </r>
       <r>   -23.6482     0.0000     2.0000 </r>
       <r>   -23.5150     0.0000     2.0000 </r>
       <r>   -23.3818     0.0000     2.0000 </r>
       <r>   -23.2486     0.0000     2.0000 </r>
       <r>   -23.1154     0.0000     2.0000 </r>
       <r>   -22.9822     0.0000     2.0000 </r>
       <r>   -22.8490     0.0000     2.0000 </r>
       <r>   -22.7158     0.0000     2.0000 </r>
       <r>   -22.5826     0.0000     2.0000 </r>
       <r>   -22.4494     0.0000     2.0000 </r>
       <r>   -22.3162     2.0211     2.2692 </r>
       <r>   -22.1830    84.3942    13.5106 </r>
       <r>   -22.0498     3.6738    14.0000 </r>
       <r>   -21.9166     0.0000    14.0000 </r>
       <r>   -21.7834     0.0000    14.0000 </r>
       <r>   -21.6502     0.0000    14.0000 </r>
       <r>   -21.5170     0.0000    14.0000 </r>
       <r>   -21.3838     0.0000    14.0000 </r>
       <r>   -21.2506     0.0000    14.0000 </r>
       <r>   -21.1174     0.0000    14.0000 </r>
       <r>   -20.9842     0.0000    14.0000 </r>
       <r>   -20.8510     0.0000    14.0000 </r>
       <r>   -20.7178     0.0000    14.0000 </r>
       <r>   -20.5846     0.0000    14.0000 </r>
       <r>   -20.4514     0.0000    14.0000 </r>
       <r>   -20.3182     0.0000    14.0000 </r>
       <r>   -20.1850     0.0000    14.0000 </r>
       <r>   -20.0518     0.0000    14.0000 </r>
       <r>   -19.9186     0.0000    14.0000 </r>
       <r>   -19.7854     0.0000    14.0000 </r>
       <r>   -19.6522     0.0000    14.0000 </r>
       <r>   -19.5190     0.0000    14.0000 </r>
       <r>   -19.3858     0.0000    14.0000 </r>
       <r>   -19.2526     0.0357    14.0048 </r>
       <r>   -19.1194    50.7871    20.7697 </r>
       <r>   -18.9862    24.2504    23.9999 </r>
       <r>   -18.8530     0.0009    24.0000 </r>
       <r>   -18.7198     0.0000    24.0000 </r>
       <r>   -18.5866     0.0000    24.0000 </r>
       <r>   -18.4534     0.0000    24.0000 </r>
       <r>   -18.3202     0.0000    24.0000 </r>
       <r>   -18.1870     0.0000    24.0000 </r>
       <r>   -18.0538     0.0000    24.0000 </r>
       <r>   -17.9206     0.0000    24.0000 </r>
       <r>   -17.7874     0.0000    24.0000 </r>
       <r>   -17.6542     0.0000    24.0000 </r>
       <r>   -17.5210     0.0000    24.0000 </r>
       <r>   -17.3877     0.0000    24.0000 </r>
       <r>   -17.2545     0.0000    24.0000 </r>
       <r>   -17.1213     0.0000    24.0000 </r>
       <r>   -16.9881     0.0000    24.0000 </r>
       <r>   -16.8549     0.0000    24.0000 </r>
       <r>   -16.7217     0.0000    24.0000 </r>
       <r>   -16.5885     0.0000    24.0000 </r>
       <r>   -16.4553     0.0000    24.0000 </r>
       <r>   -16.3221     0.0000    24.0000 </r>
       <r>   -16.1889     0.0000    24.0000 </r>
       <r>   -16.0557     0.0000    24.0000 </r>
       <r>   -15.9225     0.0000    24.0000 </r>
       <r>   -15.7893     0.0000    24.0000 </r>
       <r>   -15.6561     0.0000    24.0000 </r>
       <r>   -15.5229     0.0000    24.0000 </r>
       <r>   -15.3897     0.0000    24.0000 </r>
       <r>   -15.2565     0.0000    24.0000 </r>
       <r>   -15.1233     0.0000    24.0000 </r>
       <r>   -14.9901     0.0000    24.0000 </r>
       <r>   -14.8569     0.0000    24.0000 </r>
       <r>   -14.7237     0.0000    24.0000 </r>
       <r>   -14.5905     0.0000    24.0000 </r>
       <r>   -14.4573     0.0000    24.0000 </r>
       <r>   -14.3241     0.0000    24.0000 </r>
       <r>   -14.1909     0.0000    24.0000 </r>
       <r>   -14.0577     0.0000    24.0000 </r>
       <r>   -13.9245     0.0000    24.0000 </r>
       <r>   -13.7913     0.0000    24.0000 </r>
       <r>   -13.6581     0.0000    24.0000 </r>
       <r>   -13.5249     0.0000    24.0000 </r>
       <r>   -13.3917     0.0000    24.0000 </r>
       <r>   -13.2585     0.0000    24.0000 </r>
       <r>   -13.1253     0.0000    24.0000 </r>
       <r>   -12.9921     0.0000    24.0000 </r>
       <r>   -12.8589     0.0000    24.0000 </r>
       <r>   -12.7257     0.0000    24.0000 </r>
       <r>   -12.5925     4.2357    24.5642 </r>
       <r>   -12.4593    40.4550    29.9529 </r>
       <r>   -12.3261     0.3538    30.0000 </r>
       <r>   -12.1929     0.0000    30.0000 </r>
       <r>   -12.0597     0.0000    30.0000 </r>
       <r>   -11.9265     0.0000    30.0000 </r>
       <r>   -11.7933     0.0000    30.0000 </r>
       <r>   -11.6601     0.0000    30.0000 </r>
       <r>   -11.5269     0.0000    30.0000 </r>
       <r>   -11.3937     0.0000    30.0000 </r>
       <r>   -11.2605     0.0000    30.0000 </r>
       <r>   -11.1273     0.0000    30.0000 </r>
       <r>   -10.9941     0.0000    30.0000 </r>
       <r>   -10.8609     0.0000    30.0000 </r>
       <r>   -10.7277     0.0000    30.0000 </r>
       <r>   -10.5945     0.0000    30.0000 </r>
       <r>   -10.4613     0.0000    30.0000 </r>
       <r>   -10.3281     0.0000    30.0000 </r>
       <r>   -10.1949     0.0000    30.0000 </r>
       <r>   -10.0617     0.0000    30.0000 </r>
       <r>    -9.9285     0.0000    30.0000 </r>
       <r>    -9.7953     0.0000    30.0000 </r>
       <r>    -9.6621     0.0000    30.0000 </r>
       <r>    -9.5289     0.0000    30.0000 </r>
       <r>    -9.3957     0.0000    30.0000 </r>
       <r>    -9.2625     0.0000    30.0000 </r>
       <r>    -9.1293     0.0000    30.0000 </r>
       <r>    -8.9960     0.0000    30.0000 </r>
       <r>    -8.8628     0.0000    30.0000 </r>
       <r>    -8.7296     0.0000    30.0000 </r>
       <r>    -8.5964     0.0000    30.0000 </r>
       <r>    -8.4632     0.0000    30.0000 </r>
       <r>    -8.3300     0.0000    30.0000 </r>
       <r>    -8.1968     0.0000    30.0000 </r>
       <r>    -8.0636     0.0000    30.0000 </r>
       <r>    -7.9304     0.0000    30.0000 </r>
       <r>    -7.7972     0.0000    30.0000 </r>
       <r>    -7.6640     0.0000    30.0000 </r>
       <r>    -7.5308     0.0000    30.0000 </r>
       <r>    -7.3976     0.0179    30.0024 </r>
       <r>    -7.2644     1.6951    30.2282 </r>
       <r>    -7.1312    11.5409    31.7654 </r>
       <r>    -6.9980     1.7609    32.0000 </r>
       <r>    -6.8648     0.0000    32.0000 </r>
       <r>    -6.7316     0.0000    32.0000 </r>
       <r>    -6.5984     0.0000    32.0000 </r>
       <r>    -6.4652     0.0000    32.0000 </r>
       <r>    -6.3320     0.0000    32.0000 </r>
       <r>    -6.1988     0.0000    32.0000 </r>
       <r>    -6.0656     0.0000    32.0000 </r>
       <r>    -5.9324     0.0000    32.0000 </r>
       <r>    -5.7992     0.0000    32.0000 </r>
       <r>    -5.6660     0.0000    32.0000 </r>
       <r>    -5.5328     0.0000    32.0000 </r>
       <r>    -5.3996     0.0000    32.0000 </r>
       <r>    -5.2664     0.0000    32.0000 </r>
       <r>    -5.1332     0.0000    32.0000 </r>
       <r>    -5.0000     0.0000    32.0000 </r>
       <r>    -4.8668     0.0000    32.0000 </r>
       <r>    -4.7336     0.0000    32.0000 </r>
       <r>    -4.6004     0.0000    32.0000 </r>
       <r>    -4.4672     0.0000    32.0000 </r>
       <r>    -4.3340     0.0000    32.0000 </r>
       <r>    -4.2008     0.0000    32.0000 </r>
       <r>    -4.0676     0.0000    32.0000 </r>
       <r>    -3.9344     0.0000    32.0000 </r>
       <r>    -3.8012     0.0000    32.0000 </r>
       <r>    -3.6680     0.0000    32.0000 </r>
       <r>    -3.5348     0.0000    32.0000 </r>
       <r>    -3.4016     0.0000    32.0000 </r>
       <r>    -3.2684     0.0000    32.0000 </r>
       <r>    -3.1352     0.0000    32.0000 </r>
       <r>    -3.0020     0.0000    32.0000 </r>
       <r>    -2.8688     0.0000    32.0000 </r>
       <r>    -2.7356     0.0000    32.0000 </r>
       <r>    -2.6024     0.0000    32.0000 </r>
       <r>    -2.4692     0.0000    32.0000 </r>
       <r>    -2.3360     0.0000    32.0000 </r>
       <r>    -2.2028     0.0000    32.0000 </r>
       <r>    -2.0696     0.0000    32.0000 </r>
       <r>    -1.9364     0.0000    32.0000 </r>
       <r>    -1.8032     0.0000    32.0000 </r>
       <r>    -1.6700     0.0000    32.0000 </r>
       <r>    -1.5368     0.0000    32.0000 </r>
       <r>    -1.4036     0.0000    32.0000 </r>
       <r>    -1.2704     0.0000    32.0000 </r>
       <r>    -1.1372     0.0000    32.0000 </r>
       <r>    -1.0040     0.0000    32.0000 </r>
       <r>    -0.8708     0.0000    32.0000 </r>
       <r>    -0.7376     0.0000    32.0000 </r>
       <r>    -0.6043     0.0000    32.0000 </r>
       <r>    -0.4711     0.0000    32.0000 </r>
       <r>    -0.3379     0.0000    32.0000 </r>
       <r>    -0.2047     0.0287    32.0038 </r>
       <r>    -0.0715     0.5126    32.0721 </r>
       <r>     0.0617     1.3639    32.2538 </r>
       <r>     0.1949     3.7212    32.7494 </r>
       <r>     0.3281     4.8095    33.3901 </r>
       <r>     0.4613     2.5991    33.7363 </r>
       <r>     0.5945     0.6408    33.8216 </r>
       <r>     0.7277     1.6424    34.0404 </r>
       <r>     0.8609     2.4792    34.3706 </r>
       <r>     0.9941     0.5980    34.4503 </r>
       <r>     1.1273     2.8618    34.8315 </r>
       <r>     1.2605     2.8406    35.2099 </r>
       <r>     1.3937     3.7814    35.7136 </r>
       <r>     1.5269     5.5669    36.4551 </r>
       <r>     1.6601     4.8783    37.1049 </r>
       <r>     1.7933     3.5464    37.5773 </r>
       <r>     1.9265     1.9180    37.8327 </r>
       <r>     2.0597     0.9259    37.9561 </r>
       <r>     2.1929     0.3467    38.0023 </r>
       <r>     2.3261     0.0123    38.0039 </r>
       <r>     2.4593     0.0000    38.0039 </r>
       <r>     2.5925     0.0000    38.0039 </r>
       <r>     2.7257     0.0000    38.0039 </r>
       <r>     2.8589     0.0047    38.0045 </r>
       <r>     2.9921     0.2197    38.0338 </r>
       <r>     3.1253     0.0700    38.0431 </r>
       <r>     3.2585     0.1164    38.0586 </r>
       <r>     3.3917     0.2121    38.0869 </r>
       <r>     3.5249     0.7691    38.1893 </r>
       <r>     3.6581     1.1341    38.3404 </r>
       <r>     3.7913     1.2629    38.5086 </r>
       <r>     3.9245     3.1101    38.9229 </r>
       <r>     4.0577     2.0419    39.1949 </r>
       <r>     4.1909     1.8382    39.4397 </r>
       <r>     4.3241     3.6798    39.9299 </r>
       <r>     4.4573     2.5322    40.2671 </r>
       <r>     4.5905     1.6175    40.4826 </r>
       <r>     4.7237     0.6846    40.5738 </r>
       <r>     4.8569     0.2542    40.6077 </r>
       <r>     4.9901     1.8349    40.8521 </r>
       <r>     5.1233     4.3401    41.4302 </r>
       <r>     5.2565     2.1229    41.7130 </r>
       <r>     5.3897     5.4956    42.4450 </r>
       <r>     5.5229     2.8476    42.8243 </r>
       <r>     5.6561     3.4557    43.2846 </r>
       <r>     5.7893     3.4314    43.7416 </r>
       <r>     5.9225     1.6616    43.9630 </r>
       <r>     6.0557     1.5210    44.1656 </r>
       <r>     6.1889     2.0035    44.4324 </r>
       <r>     6.3221     3.2671    44.8676 </r>
       <r>     6.4553     4.4377    45.4587 </r>
       <r>     6.5885     1.5949    45.6712 </r>
       <r>     6.7217     0.3613    45.7193 </r>
       <r>     6.8549     0.3571    45.7669 </r>
       <r>     6.9881     0.7478    45.8665 </r>
       <r>     7.1213     0.8658    45.9818 </r>
       <r>     7.2545     0.0561    45.9893 </r>
       <r>     7.3877     0.0797    45.9999 </r>
       <r>     7.5209     0.0007    46.0000 </r>
       <r>     7.6541     0.0000    46.0000 </r>
       <r>     7.7873     0.0000    46.0000 </r>
       <r>     7.9206     0.0000    46.0000 </r>
       <r>     8.0538     0.0000    46.0000 </r>
       <r>     8.1870     0.0000    46.0000 </r>
       <r>     8.3202     0.0000    46.0000 </r>
       <r>     8.4534     0.0000    46.0000 </r>
       <r>     8.5866     0.0000    46.0000 </r>
       <r>     8.7198     0.0000    46.0000 </r>
       <r>     8.8530     0.0000    46.0000 </r>
       <r>     8.9862     0.0000    46.0000 </r>
       <r>     9.1194     0.0000    46.0000 </r>
      </set>
     </set>
    </array>
   </total>
  </dos>
 </calculation>
 <structure name="finalpos" >
  <crystal>
   <varray name="basis" >
    <v>       0.00000000       3.98158885       3.98158885 </v>
    <v>       3.98158885       0.00000000       3.98158885 </v>
    <v>       3.98158885       3.98158885       0.00000000 </v>
   </varray>
   <i name="volume">    126.24065213 </i>
   <varray name="rec_basis" >
    <v>      -0.12557801       0.12557801       0.12557801 </v>
    <v>       0.12557801      -0.12557801       0.12557801 </v>
    <v>       0.12557801       0.12557801      -0.12557801 </v>
   </varray>
  </crystal>
  <varray name="positions" >
   <v>       0.24999994       0.24999994       0.24999994 </v>
   <v>       0.74999981       0.74999981       0.74999981 </v>
   <v>       0.00000000       0.00000000       0.00000000 </v>
   <v>       0.49999987       0.49999987       0.49999987 </v>
  </varray>
 </structure>
</modeling>
