unknown system                          
           1
     0.000000    3.981589    3.981589
     3.981589    0.000000    3.981589
     3.981589    3.981589    0.000000
   Bi   K    Na
   1   1   2
Direct configuration=     1
   0.24999994  0.24999994  0.24999994
   0.74999981  0.74999981  0.74999981
   0.00000000  0.00000000  0.00000000
   0.49999987  0.49999987  0.49999987
