   4   4   0   0
  0.4767796E+02  0.6460968E-09  0.6460968E-09  0.6460968E-09  0.5000000E-15
  1.000000000000000E-004
  CAR 
 unknown system                          
      6.66632791    -27.49898799  301      1.89818954      1.00000000
    -27.499  0.0000E+00  0.0000E+00
    -27.385  0.0000E+00  0.0000E+00
    -27.271  0.0000E+00  0.0000E+00
    -27.157  0.0000E+00  0.0000E+00
    -27.043  0.0000E+00  0.0000E+00
    -26.930  0.0000E+00  0.0000E+00
    -26.816  0.0000E+00  0.0000E+00
    -26.702  0.0000E+00  0.0000E+00
    -26.588  0.0000E+00  0.0000E+00
    -26.474  0.0000E+00  0.0000E+00
    -26.360  0.0000E+00  0.0000E+00
    -26.246  0.0000E+00  0.0000E+00
    -26.132  0.7759E-08  0.8836E-09
    -26.018  0.4136E-02  0.4711E-03
    -25.905  0.2865E+00  0.3310E-01
    -25.791  0.6055E-01  0.4000E-01
    -25.677  0.5741E-05  0.4000E-01
    -25.563  0.3144E-13  0.4000E-01
    -25.449  0.0000E+00  0.4000E-01
    -25.335  0.0000E+00  0.4000E-01
    -25.221  0.0000E+00  0.4000E-01
    -25.107  0.0000E+00  0.4000E-01
    -24.994  0.0000E+00  0.4000E-01
    -24.880  0.0000E+00  0.4000E-01
    -24.766  0.0000E+00  0.4000E-01
    -24.652  0.0000E+00  0.4000E-01
    -24.538  0.0000E+00  0.4000E-01
    -24.424  0.0000E+00  0.4000E-01
    -24.310  0.0000E+00  0.4000E-01
    -24.196  0.0000E+00  0.4000E-01
    -24.082  0.0000E+00  0.4000E-01
    -23.969  0.0000E+00  0.4000E-01
    -23.855  0.0000E+00  0.4000E-01
    -23.741  0.0000E+00  0.4000E-01
    -23.627  0.0000E+00  0.4000E-01
    -23.513  0.0000E+00  0.4000E-01
    -23.399  0.0000E+00  0.4000E-01
    -23.285  0.0000E+00  0.4000E-01
    -23.171  0.0000E+00  0.4000E-01
    -23.057  0.0000E+00  0.4000E-01
    -22.944  0.0000E+00  0.4000E-01
    -22.830  0.0000E+00  0.4000E-01
    -22.716  0.0000E+00  0.4000E-01
    -22.602  0.0000E+00  0.4000E-01
    -22.488  0.0000E+00  0.4000E-01
    -22.374  0.0000E+00  0.4000E-01
    -22.260  0.0000E+00  0.4000E-01
    -22.146  0.0000E+00  0.4000E-01
    -22.033  0.0000E+00  0.4000E-01
    -21.919  0.0000E+00  0.4000E-01
    -21.805  0.0000E+00  0.4000E-01
    -21.691  0.0000E+00  0.4000E-01
    -21.577  0.5589E-08  0.4000E-01
    -21.463  0.2522E-02  0.4029E-01
    -21.349  0.1466E+00  0.5699E-01
    -21.235  0.2646E-01  0.6000E-01
    -21.121  0.1839E-05  0.6000E-01
    -21.008  0.6753E-14  0.6000E-01
    -20.894  0.0000E+00  0.6000E-01
    -20.780  0.0000E+00  0.6000E-01
    -20.666  0.0000E+00  0.6000E-01
    -20.552  0.0000E+00  0.6000E-01
    -20.438  0.0000E+00  0.6000E-01
    -20.324  0.0000E+00  0.6000E-01
    -20.210  0.0000E+00  0.6000E-01
    -20.097  0.0000E+00  0.6000E-01
    -19.983  0.0000E+00  0.6000E-01
    -19.869  0.0000E+00  0.6000E-01
    -19.755  0.0000E+00  0.6000E-01
    -19.641  0.0000E+00  0.6000E-01
    -19.527  0.0000E+00  0.6000E-01
    -19.413  0.0000E+00  0.6000E-01
    -19.299  0.6546E-09  0.6000E-01
    -19.185  0.2042E-02  0.6023E-01
    -19.072  0.5683E+00  0.1250E+00
    -18.958  0.3076E+00  0.1600E+00
    -18.844  0.1407E-03  0.1600E+00
    -18.730  0.4217E-11  0.1600E+00
    -18.616  0.0000E+00  0.1600E+00
    -18.502  0.0000E+00  0.1600E+00
    -18.388  0.0000E+00  0.1600E+00
    -18.274  0.0000E+00  0.1600E+00
    -18.160  0.0000E+00  0.1600E+00
    -18.047  0.0000E+00  0.1600E+00
    -17.933  0.0000E+00  0.1600E+00
    -17.819  0.0000E+00  0.1600E+00
    -17.705  0.0000E+00  0.1600E+00
    -17.591  0.0000E+00  0.1600E+00
    -17.477  0.0000E+00  0.1600E+00
    -17.363  0.0000E+00  0.1600E+00
    -17.249  0.0000E+00  0.1600E+00
    -17.136  0.0000E+00  0.1600E+00
    -17.022  0.0000E+00  0.1600E+00
    -16.908  0.0000E+00  0.1600E+00
    -16.794  0.0000E+00  0.1600E+00
    -16.680  0.0000E+00  0.1600E+00
    -16.566  0.0000E+00  0.1600E+00
    -16.452  0.0000E+00  0.1600E+00
    -16.338  0.0000E+00  0.1600E+00
    -16.224  0.0000E+00  0.1600E+00
    -16.111  0.0000E+00  0.1600E+00
    -15.997  0.0000E+00  0.1600E+00
    -15.883  0.0000E+00  0.1600E+00
    -15.769  0.0000E+00  0.1600E+00
    -15.655  0.0000E+00  0.1600E+00
    -15.541  0.0000E+00  0.1600E+00
    -15.427  0.0000E+00  0.1600E+00
    -15.313  0.0000E+00  0.1600E+00
    -15.199  0.0000E+00  0.1600E+00
    -15.086  0.0000E+00  0.1600E+00
    -14.972  0.0000E+00  0.1600E+00
    -14.858  0.0000E+00  0.1600E+00
    -14.744  0.0000E+00  0.1600E+00
    -14.630  0.0000E+00  0.1600E+00
    -14.516  0.0000E+00  0.1600E+00
    -14.402  0.0000E+00  0.1600E+00
    -14.288  0.0000E+00  0.1600E+00
    -14.175  0.0000E+00  0.1600E+00
    -14.061  0.0000E+00  0.1600E+00
    -13.947  0.0000E+00  0.1600E+00
    -13.833  0.0000E+00  0.1600E+00
    -13.719  0.0000E+00  0.1600E+00
    -13.605  0.0000E+00  0.1600E+00
    -13.491  0.0000E+00  0.1600E+00
    -13.377  0.0000E+00  0.1600E+00
    -13.263  0.0000E+00  0.1600E+00
    -13.150  0.0000E+00  0.1600E+00
    -13.036  0.0000E+00  0.1600E+00
    -12.922  0.0000E+00  0.1600E+00
    -12.808  0.0000E+00  0.1600E+00
    -12.694  0.0000E+00  0.1600E+00
    -12.580  0.0000E+00  0.1600E+00
    -12.466  0.0000E+00  0.1600E+00
    -12.352  0.0000E+00  0.1600E+00
    -12.238  0.0000E+00  0.1600E+00
    -12.125  0.0000E+00  0.1600E+00
    -12.011  0.0000E+00  0.1600E+00
    -11.897  0.0000E+00  0.1600E+00
    -11.783  0.0000E+00  0.1600E+00
    -11.669  0.0000E+00  0.1600E+00
    -11.555  0.0000E+00  0.1600E+00
    -11.441  0.0000E+00  0.1600E+00
    -11.327  0.0000E+00  0.1600E+00
    -11.214  0.0000E+00  0.1600E+00
    -11.100  0.0000E+00  0.1600E+00
    -10.986  0.0000E+00  0.1600E+00
    -10.872  0.0000E+00  0.1600E+00
    -10.758  0.0000E+00  0.1600E+00
    -10.644  0.0000E+00  0.1600E+00
    -10.530  0.0000E+00  0.1600E+00
    -10.416  0.9650E-10  0.1600E+00
    -10.302  0.1752E-03  0.1600E+00
    -10.189  0.9013E-01  0.1703E+00
    -10.075  0.5100E+00  0.2284E+00
     -9.961  0.4351E+00  0.2779E+00
     -9.847  0.1825E-01  0.2800E+00
     -9.733  0.5355E-06  0.2800E+00
     -9.619  0.1296E-14  0.2800E+00
     -9.505  0.0000E+00  0.2800E+00
     -9.391  0.0000E+00  0.2800E+00
     -9.277  0.0000E+00  0.2800E+00
     -9.164  0.0000E+00  0.2800E+00
     -9.050  0.0000E+00  0.2800E+00
     -8.936  0.0000E+00  0.2800E+00
     -8.822  0.0000E+00  0.2800E+00
     -8.708  0.0000E+00  0.2800E+00
     -8.594  0.0000E+00  0.2800E+00
     -8.480  0.4262E-12  0.2800E+00
     -8.366  0.1243E-04  0.2800E+00
     -8.253  0.5072E-01  0.2858E+00
     -8.139  0.4329E+00  0.3351E+00
     -8.025  0.4318E-01  0.3400E+00
     -7.911  0.3006E-05  0.3400E+00
     -7.797  0.1722E-13  0.3400E+00
     -7.683  0.0000E+00  0.3400E+00
     -7.569  0.0000E+00  0.3400E+00
     -7.455  0.0000E+00  0.3400E+00
     -7.341  0.0000E+00  0.3400E+00
     -7.228  0.3760E-10  0.3400E+00
     -7.114  0.2622E-04  0.3400E+00
     -7.000  0.1608E-01  0.3418E+00
     -6.886  0.1491E+00  0.3588E+00
     -6.772  0.1042E-01  0.3600E+00
     -6.658  0.2279E-06  0.3600E+00
     -6.544  0.2882E-15  0.3600E+00
     -6.430  0.0000E+00  0.3600E+00
     -6.316  0.0000E+00  0.3600E+00
     -6.203  0.0000E+00  0.3600E+00
     -6.089  0.0000E+00  0.3600E+00
     -5.975  0.0000E+00  0.3600E+00
     -5.861  0.0000E+00  0.3600E+00
     -5.747  0.0000E+00  0.3600E+00
     -5.633  0.0000E+00  0.3600E+00
     -5.519  0.0000E+00  0.3600E+00
     -5.405  0.0000E+00  0.3600E+00
     -5.292  0.0000E+00  0.3600E+00
     -5.178  0.0000E+00  0.3600E+00
     -5.064  0.0000E+00  0.3600E+00
     -4.950  0.0000E+00  0.3600E+00
     -4.836  0.0000E+00  0.3600E+00
     -4.722  0.0000E+00  0.3600E+00
     -4.608  0.0000E+00  0.3600E+00
     -4.494  0.0000E+00  0.3600E+00
     -4.380  0.0000E+00  0.3600E+00
     -4.267  0.0000E+00  0.3600E+00
     -4.153  0.0000E+00  0.3600E+00
     -4.039  0.0000E+00  0.3600E+00
     -3.925  0.0000E+00  0.3600E+00
     -3.811  0.0000E+00  0.3600E+00
     -3.697  0.0000E+00  0.3600E+00
     -3.583  0.0000E+00  0.3600E+00
     -3.469  0.0000E+00  0.3600E+00
     -3.355  0.0000E+00  0.3600E+00
     -3.242  0.0000E+00  0.3600E+00
     -3.128  0.0000E+00  0.3600E+00
     -3.014  0.0000E+00  0.3600E+00
     -2.900  0.0000E+00  0.3600E+00
     -2.786  0.0000E+00  0.3600E+00
     -2.672  0.0000E+00  0.3600E+00
     -2.558  0.0000E+00  0.3600E+00
     -2.444  0.0000E+00  0.3600E+00
     -2.331  0.0000E+00  0.3600E+00
     -2.217  0.0000E+00  0.3600E+00
     -2.103  0.0000E+00  0.3600E+00
     -1.989  0.0000E+00  0.3600E+00
     -1.875  0.0000E+00  0.3600E+00
     -1.761  0.0000E+00  0.3600E+00
     -1.647  0.0000E+00  0.3600E+00
     -1.533  0.0000E+00  0.3600E+00
     -1.419  0.0000E+00  0.3600E+00
     -1.306  0.0000E+00  0.3600E+00
     -1.192  0.0000E+00  0.3600E+00
     -1.078  0.0000E+00  0.3600E+00
     -0.964  0.0000E+00  0.3600E+00
     -0.850  0.0000E+00  0.3600E+00
     -0.736  0.0000E+00  0.3600E+00
     -0.622  0.0000E+00  0.3600E+00
     -0.508  0.0000E+00  0.3600E+00
     -0.395  0.0000E+00  0.3600E+00
     -0.281  0.0000E+00  0.3600E+00
     -0.167  0.0000E+00  0.3600E+00
     -0.053  0.0000E+00  0.3600E+00
      0.061  0.0000E+00  0.3600E+00
      0.175  0.0000E+00  0.3600E+00
      0.289  0.0000E+00  0.3600E+00
      0.403  0.0000E+00  0.3600E+00
      0.517  0.3011E-13  0.3600E+00
      0.630  0.5188E-06  0.3600E+00
      0.744  0.8883E-03  0.3601E+00
      0.858  0.3184E-01  0.3637E+00
      0.972  0.7424E-01  0.3722E+00
      1.086  0.4127E-01  0.3769E+00
      1.200  0.2175E-01  0.3794E+00
      1.314  0.1378E-01  0.3809E+00
      1.428  0.4501E-01  0.3861E+00
      1.542  0.9058E-01  0.3964E+00
      1.655  0.1313E+00  0.4113E+00
      1.769  0.6655E-01  0.4189E+00
      1.883  0.9624E-02  0.4200E+00
      1.997  0.2519E-03  0.4200E+00
      2.111  0.1055E-03  0.4200E+00
      2.225  0.3363E-07  0.4200E+00
      2.339  0.7910E-14  0.4200E+00
      2.453  0.3317E-06  0.4200E+00
      2.566  0.1101E-02  0.4202E+00
      2.680  0.3641E-02  0.4206E+00
      2.794  0.5984E-04  0.4206E+00
      2.908  0.9053E-05  0.4206E+00
      3.022  0.2835E-02  0.4209E+00
      3.136  0.4805E-02  0.4215E+00
      3.250  0.9582E-02  0.4225E+00
      3.364  0.1099E-01  0.4238E+00
      3.478  0.5537E-02  0.4244E+00
      3.591  0.3229E-01  0.4281E+00
      3.705  0.3380E-01  0.4320E+00
      3.819  0.4931E-01  0.4376E+00
      3.933  0.6177E-01  0.4446E+00
      4.047  0.4780E-01  0.4501E+00
      4.161  0.4228E-01  0.4549E+00
      4.275  0.5580E-01  0.4612E+00
      4.389  0.4051E-01  0.4658E+00
      4.503  0.7002E-01  0.4738E+00
      4.616  0.5272E-01  0.4798E+00
      4.730  0.1013E+00  0.4913E+00
      4.844  0.6404E-01  0.4986E+00
      4.958  0.1088E-01  0.4999E+00
      5.072  0.1354E-03  0.4999E+00
      5.186  0.8840E-03  0.5000E+00
      5.300  0.2078E-04  0.5000E+00
      5.414  0.6983E-10  0.5000E+00
      5.527  0.0000E+00  0.5000E+00
      5.641  0.0000E+00  0.5000E+00
      5.755  0.0000E+00  0.5000E+00
      5.869  0.0000E+00  0.5000E+00
      5.983  0.0000E+00  0.5000E+00
      6.097  0.0000E+00  0.5000E+00
      6.211  0.0000E+00  0.5000E+00
      6.325  0.0000E+00  0.5000E+00
      6.439  0.0000E+00  0.5000E+00
      6.552  0.0000E+00  0.5000E+00
      6.666  0.0000E+00  0.5000E+00
