    4    4  100    1
  0.4767796E+02  0.6460968E-09  0.6460968E-09  0.6460968E-09  0.5000000E-15
  1.000000000000000E-004
  CAR 
 unknown system                          
     42     29     25
 
  0.0000000E+00  0.0000000E+00  0.0000000E+00  0.1953125E-02
    1      -25.946019   1.000000
    2      -25.930810   1.000000
    3      -21.384385   1.000000
    4      -19.087188   1.000000
    5      -19.087182   1.000000
    6      -19.087182   1.000000
    7      -19.082322   1.000000
    8      -19.082322   1.000000
    9      -10.120795   1.000000
   10      -10.120795   1.000000
   11      -10.120793   1.000000
   12      -10.041783   1.000000
   13      -10.041783   1.000000
   14      -10.041779   1.000000
   15       -8.202244   1.000000
   16       -8.202244   1.000000
   17       -8.202228   1.000000
   18       -7.042771   1.000000
   19        1.720823   1.000000
   20        1.720855   1.000000
   21        1.720855   1.000000
   22        1.979290   0.010899
   23        3.666786   0.000000
   24        3.666786   0.000000
   25        4.589583   0.000000
 
  0.1250000E+00  0.0000000E+00  0.0000000E+00  0.1562500E-01
    1      -25.945389   1.000000
    2      -25.931356   1.000000
    3      -21.384589   1.000000
    4      -19.087183   1.000000
    5      -19.087178   1.000000
    6      -19.087136   1.000000
    7      -19.082331   1.000000
    8      -19.082331   1.000000
    9      -10.125583   1.000000
   10      -10.119405   1.000000
   11      -10.119403   1.000000
   12      -10.045476   1.000000
   13      -10.045472   1.000000
   14      -10.040883   1.000000
   15       -8.211212   1.000000
   16       -8.199271   1.000000
   17       -8.199257   1.000000
   18       -7.020386   1.000000
   19        1.296849   1.000000
   20        1.676349   1.000000
   21        1.676376   1.000000
   22        2.582594   0.000000
   23        3.840906   0.000000
   24        3.840907   0.000000
   25        4.440383   0.000000
 
  0.2500000E+00  0.0000000E+00  0.0000000E+00  0.1562500E-01
    1      -25.943626   1.000000
    2      -25.932920   1.000000
    3      -21.385075   1.000000
    4      -19.087162   1.000000
    5      -19.087157   1.000000
    6      -19.087030   1.000000
    7      -19.082344   1.000000
    8      -19.082344   1.000000
    9      -10.130099   1.000000
   10      -10.115059   1.000000
   11      -10.115056   1.000000
   12      -10.055399   1.000000
   13      -10.055397   1.000000
   14      -10.047346   1.000000
   15       -8.224610   1.000000
   16       -8.192099   1.000000
   17       -8.192085   1.000000
   18       -6.974813   1.000000
   19        0.971221   1.000000
   20        1.589753   1.000000
   21        1.589779   1.000000
   22        3.320684   0.000000
   23        4.285385   0.000000
   24        4.285389   0.000000
   25        4.298638   0.000000
 
  0.3750000E+00  0.0000000E+00  0.0000000E+00  0.1562500E-01
    1      -25.941062   1.000000
    2      -25.935288   1.000000
    3      -21.385558   1.000000
    4      -19.087136   1.000000
    5      -19.087131   1.000000
    6      -19.086910   1.000000
    7      -19.082348   1.000000
    8      -19.082348   1.000000
    9      -10.127086   1.000000
   10      -10.108085   1.000000
   11      -10.108080   1.000000
   12      -10.067921   1.000000
   13      -10.067920   1.000000
   14      -10.063032   1.000000
   15       -8.228988   1.000000
   16       -8.184951   1.000000
   17       -8.184937   1.000000
   18       -6.938819   1.000000
   19        0.803071   1.000000
   20        1.523116   1.000000
   21        1.523141   1.000000
   22        3.762749   0.000000
   23        4.647308   0.000000
   24        4.658107   0.000000
   25        4.658118   0.000000
 
  0.5000000E+00  0.0000000E+00  0.0000000E+00  0.7812500E-02
    1      -25.938166   1.000000
    2      -25.938101   1.000000
    3      -21.385753   1.000000
    4      -19.087118   1.000000
    5      -19.087113   1.000000
    6      -19.086854   1.000000
    7      -19.082345   1.000000
    8      -19.082345   1.000000
    9      -10.123395   1.000000
   10      -10.103249   1.000000
   11      -10.103243   1.000000
   12      -10.075042   1.000000
   13      -10.075041   1.000000
   14      -10.072318   1.000000
   15       -8.228799   1.000000
   16       -8.181995   1.000000
   17       -8.181981   1.000000
   18       -6.926127   1.000000
   19        0.749574   1.000000
   20        1.499732   1.000000
   21        1.499757   1.000000
   22        3.991361   0.000000
   23        4.636919   0.000000
   24        4.709461   0.000000
   25        4.709466   0.000000
 
  0.1250000E+00  0.1250000E+00  0.0000000E+00  0.1171875E-01
    1      -25.945209   1.000000
    2      -25.931510   1.000000
    3      -21.384659   1.000000
    4      -19.087179   1.000000
    5      -19.087174   1.000000
    6      -19.087135   1.000000
    7      -19.082337   1.000000
    8      -19.082315   1.000000
    9      -10.131702   1.000000
   10      -10.131701   1.000000
   11      -10.102503   1.000000
   12      -10.061595   1.000000
   13      -10.035583   1.000000
   14      -10.035581   1.000000
   15       -8.218040   1.000000
   16       -8.196244   1.000000
   17       -8.196234   1.000000
   18       -7.014090   1.000000
   19        1.180054   1.000000
   20        1.732100   0.999999
   21        1.732121   0.999999
   22        2.611254   0.000000
   23        3.765901   0.000000
   24        4.037600   0.000000
   25        4.290936   0.000000
 
  0.2500000E+00  0.1250000E+00  0.0000000E+00  0.4687500E-01
    1      -25.943902   1.000000
    2      -25.932656   1.000000
    3      -21.385058   1.000000
    4      -19.087158   1.000000
    5      -19.087154   1.000000
    6      -19.087057   1.000000
    7      -19.082357   1.000000
    8      -19.082329   1.000000
    9      -10.140762   1.000000
   10      -10.138465   1.000000
   11      -10.086796   1.000000
   12      -10.081059   1.000000
   13      -10.034382   1.000000
   14      -10.033980   1.000000
   15       -8.229442   1.000000
   16       -8.191096   1.000000
   17       -8.189103   1.000000
   18       -6.979838   1.000000
   19        0.958787   1.000000
   20        1.644497   1.000000
   21        1.698258   1.000000
   22        3.153996   0.000000
   23        4.024595   0.000000
   24        4.059084   0.000000
   25        4.468119   0.000000
 
  0.3750000E+00  0.1250000E+00  0.0000000E+00  0.4687500E-01
    1      -25.941729   1.000000
    2      -25.934629   1.000000
    3      -21.385540   1.000000
    4      -19.087133   1.000000
    5      -19.087118   1.000000
    6      -19.086951   1.000000
    7      -19.082350   1.000000
    8      -19.082337   1.000000
    9      -10.144495   1.000000
   10      -10.137276   1.000000
   11      -10.104301   1.000000
   12      -10.066912   1.000000
   13      -10.044325   1.000000
   14      -10.041028   1.000000
   15       -8.230061   1.000000
   16       -8.187421   1.000000
   17       -8.182056   1.000000
   18       -6.946339   1.000000
   19        0.853960   1.000000
   20        1.511388   1.000000
   21        1.616491   1.000000
   22        3.648551   0.000000
   23        4.231183   0.000000
   24        4.477396   0.000000
   25        4.683973   0.000000
 
  0.5000000E+00  0.1250000E+00  0.0000000E+00  0.4687500E-01
    1      -25.939076   1.000000
    2      -25.937162   1.000000
    3      -21.385832   1.000000
    4      -19.087118   1.000000
    5      -19.087093   1.000000
    6      -19.086881   1.000000
    7      -19.082346   1.000000
    8      -19.082340   1.000000
    9      -10.149038   1.000000
   10      -10.127129   1.000000
   11      -10.111239   1.000000
   12      -10.064661   1.000000
   13      -10.053358   1.000000
   14      -10.047784   1.000000
   15       -8.224191   1.000000
   16       -8.186171   1.000000
   17       -8.179192   1.000000
   18       -6.929732   1.000000
   19        0.825401   1.000000
   20        1.448781   1.000000
   21        1.540624   1.000000
   22        3.922459   0.000000
   23        4.473772   0.000000
   24        4.688594   0.000000
   25        4.725496   0.000000
 
 -0.3750000E+00  0.1250000E+00  0.0000000E+00  0.4687500E-01
    1      -25.939907   1.000000
    2      -25.936357   1.000000
    3      -21.385764   1.000000
    4      -19.087125   1.000000
    5      -19.087087   1.000000
    6      -19.086896   1.000000
    7      -19.082355   1.000000
    8      -19.082331   1.000000
    9      -10.153709   1.000000
   10      -10.109391   1.000000
   11      -10.106375   1.000000
   12      -10.078483   1.000000
   13      -10.068729   1.000000
   14      -10.033529   1.000000
   15       -8.223290   1.000000
   16       -8.186197   1.000000
   17       -8.182183   1.000000
   18       -6.932916   1.000000
   19        0.835760   1.000000
   20        1.494623   1.000000
   21        1.499346   1.000000
   22        3.888214   0.000000
   23        4.421213   0.000000
   24        4.648724   0.000000
   25        4.703863   0.000000
 
 -0.2500000E+00  0.1250000E+00  0.0000000E+00  0.4687500E-01
    1      -25.942462   1.000000
    2      -25.933961   1.000000
    3      -21.385374   1.000000
    4      -19.087153   1.000000
    5      -19.087111   1.000000
    6      -19.086983   1.000000
    7      -19.082358   1.000000
    8      -19.082329   1.000000
    9      -10.150870   1.000000
   10      -10.113242   1.000000
   11      -10.091928   1.000000
   12      -10.080641   1.000000
   13      -10.068403   1.000000
   14      -10.026300   1.000000
   15       -8.226057   1.000000
   16       -8.189300   1.000000
   17       -8.187813   1.000000
   18       -6.955680   1.000000
   19        0.896915   1.000000
   20        1.510009   1.000000
   21        1.619483   1.000000
   22        3.551454   0.000000
   23        4.208666   0.000000
   24        4.387689   0.000000
   25        4.586915   0.000000
 
 -0.1250000E+00  0.1250000E+00  0.0000000E+00  0.2343750E-01
    1      -25.944411   1.000000
    2      -25.932215   1.000000
    3      -21.384888   1.000000
    4      -19.087171   1.000000
    5      -19.087155   1.000000
    6      -19.087084   1.000000
    7      -19.082346   1.000000
    8      -19.082328   1.000000
    9      -10.139481   1.000000
   10      -10.120095   1.000000
   11      -10.104217   1.000000
   12      -10.062858   1.000000
   13      -10.052165   1.000000
   14      -10.030233   1.000000
   15       -8.221264   1.000000
   16       -8.196381   1.000000
   17       -8.192775   1.000000
   18       -6.992243   1.000000
   19        1.060652   1.000000
   20        1.578166   1.000000
   21        1.716753   1.000000
   22        3.008861   0.000000
   23        4.009406   0.000000
   24        4.214078   0.000000
   25        4.242821   0.000000
 
  0.2500000E+00  0.2500000E+00  0.0000000E+00  0.1171875E-01
    1      -25.943245   1.000000
    2      -25.933204   1.000000
    3      -21.385311   1.000000
    4      -19.087132   1.000000
    5      -19.087128   1.000000
    6      -19.087007   1.000000
    7      -19.082333   1.000000
    8      -19.082308   1.000000
    9      -10.155727   1.000000
   10      -10.155725   1.000000
   11      -10.109481   1.000000
   12      -10.057814   1.000000
   13      -10.022585   1.000000
   14      -10.022584   1.000000
   15       -8.242767   1.000000
   16       -8.182137   1.000000
   17       -8.182126   1.000000
   18       -6.965816   1.000000
   19        0.854491   1.000000
   20        1.757287   0.999966
   21        1.757308   0.999966
   22        3.264712   0.000000
   23        3.704982   0.000000
   24        4.061925   0.000000
   25        4.732483   0.000000
 
  0.3750000E+00  0.2500000E+00  0.0000000E+00  0.4687500E-01
    1      -25.941798   1.000000
    2      -25.934490   1.000000
    3      -21.385714   1.000000
    4      -19.087107   1.000000
    5      -19.087092   1.000000
    6      -19.086945   1.000000
    7      -19.082327   1.000000
    8      -19.082315   1.000000
    9      -10.167360   1.000000
   10      -10.162827   1.000000
   11      -10.130292   1.000000
   12      -10.035639   1.000000
   13      -10.023317   1.000000
   14      -10.020813   1.000000
   15       -8.243133   1.000000
   16       -8.177961   1.000000
   17       -8.175253   1.000000
   18       -6.947607   1.000000
   19        0.851507   1.000000
   20        1.653865   1.000000
   21        1.726579   0.999999
   22        3.526051   0.000000
   23        3.736759   0.000000
   24        4.383275   0.000000
   25        4.622680   0.000000
 
  0.5000000E+00  0.2500000E+00  0.0000000E+00  0.4687500E-01
    1      -25.939831   1.000000
    2      -25.936335   1.000000
    3      -21.386008   1.000000
    4      -19.087090   1.000000
    5      -19.087042   1.000000
    6      -19.086902   1.000000
    7      -19.082324   1.000000
    8      -19.082316   1.000000
    9      -10.181896   1.000000
   10      -10.157464   1.000000
   11      -10.128368   1.000000
   12      -10.041153   1.000000
   13      -10.028278   1.000000
   14      -10.017693   1.000000
   15       -8.228574   1.000000
   16       -8.182458   1.000000
   17       -8.172479   1.000000
   18       -6.936475   1.000000
   19        0.952163   1.000000
   20        1.437499   1.000000
   21        1.641408   1.000000
   22        3.666130   0.000000
   23        4.150046   0.000000
   24        4.504154   0.000000
   25        4.695240   0.000000
 
 -0.3750000E+00  0.2500000E+00  0.0000000E+00  0.4687500E-01
    1      -25.938487   1.000000
    2      -25.937669   1.000000
    3      -21.386036   1.000000
    4      -19.087104   1.000000
    5      -19.087011   1.000000
    6      -19.086916   1.000000
    7      -19.082344   1.000000
    8      -19.082313   1.000000
    9      -10.186617   1.000000
   10      -10.140063   1.000000
   11      -10.111946   1.000000
   12      -10.067760   1.000000
   13      -10.043332   1.000000
   14      -10.008459   1.000000
   15       -8.210794   1.000000
   16       -8.194501   1.000000
   17       -8.175420   1.000000
   18       -6.933700   1.000000
   19        1.020881   1.000000
   20        1.334652   1.000000
   21        1.552260   1.000000
   22        3.985546   0.000000
   23        4.040854   0.000000
   24        4.672455   0.000000
   25        4.736624   0.000000
 
 -0.2500000E+00  0.2500000E+00  0.0000000E+00  0.2343750E-01
    1      -25.940643   1.000000
    2      -25.935619   1.000000
    3      -21.385781   1.000000
    4      -19.087134   1.000000
    5      -19.087043   1.000000
    6      -19.086965   1.000000
    7      -19.082359   1.000000
    8      -19.082323   1.000000
    9      -10.174499   1.000000
   10      -10.114033   1.000000
   11      -10.094816   1.000000
   12      -10.090354   1.000000
   13      -10.063912   1.000000
   14      -10.010504   1.000000
   15       -8.216046   1.000000
   16       -8.192128   1.000000
   17       -8.182383   1.000000
   18       -6.939711   1.000000
   19        0.931576   1.000000
   20        1.486822   1.000000
   21        1.498943   1.000000
   22        3.849416   0.000000
   23        4.278653   0.000000
   24        4.319027   0.000000
   25        4.599722   0.000000
 
  0.3750000E+00  0.3750000E+00  0.0000000E+00  0.1171875E-01
    1      -25.941281   1.000000
    2      -25.934896   1.000000
    3      -21.385982   1.000000
    4      -19.087083   1.000000
    5      -19.087080   1.000000
    6      -19.086887   1.000000
    7      -19.082307   1.000000
    8      -19.082305   1.000000
    9      -10.178007   1.000000
   10      -10.178004   1.000000
   11      -10.157327   1.000000
   12      -10.012344   1.000000
   13      -10.010860   1.000000
   14      -10.010859   1.000000
   15       -8.251506   1.000000
   16       -8.168549   1.000000
   17       -8.168538   1.000000
   18       -6.944675   1.000000
   19        0.872907   1.000000
   20        1.779610   0.999602
   21        1.779631   0.999601
   22        3.229948   0.000000
   23        3.688027   0.000000
   24        4.457029   0.000000
   25        4.549887   0.000000
 
  0.5000000E+00  0.3750000E+00  0.0000000E+00  0.4687500E-01
    1      -25.940309   1.000000
    2      -25.935787   1.000000
    3      -21.386191   1.000000
    4      -19.087076   1.000000
    5      -19.087047   1.000000
    6      -19.086868   1.000000
    7      -19.082306   1.000000
    8      -19.082294   1.000000
    9      -10.194302   1.000000
   10      -10.179105   1.000000
   11      -10.155145   1.000000
   12      -10.016385   1.000000
   13      -10.011850   1.000000
   14       -9.999312   1.000000
   15       -8.244059   1.000000
   16       -8.169006   1.000000
   17       -8.165809   1.000000
   18       -6.941519   1.000000
   19        0.974011   1.000000
   20        1.636920   1.000000
   21        1.744709   0.999993
   22        3.279342   0.000000
   23        3.704582   0.000000
   24        4.516859   0.000000
   25        4.849482   0.000000
 
 -0.3750000E+00  0.3750000E+00  0.0000000E+00  0.2343750E-01
    1      -25.939046   1.000000
    2      -25.937041   1.000000
    3      -21.386207   1.000000
    4      -19.087081   1.000000
    5      -19.086983   1.000000
    6      -19.086900   1.000000
    7      -19.082318   1.000000
    8      -19.082288   1.000000
    9      -10.201985   1.000000
   10      -10.165517   1.000000
   11      -10.133672   1.000000
   12      -10.039002   1.000000
   13      -10.023184   1.000000
   14       -9.997321   1.000000
   15       -8.225602   1.000000
   16       -8.180755   1.000000
   17       -8.168648   1.000000
   18       -6.937730   1.000000
   19        1.118883   1.000000
   20        1.340449   1.000000
   21        1.651191   1.000000
   22        3.599140   0.000000
   23        3.856926   0.000000
   24        4.745855   0.000000
   25        4.788006   0.000000
 
  0.5000000E+00  0.5000000E+00  0.0000000E+00  0.5859375E-02
    1      -25.940470   1.000000
    2      -25.935596   1.000000
    3      -21.386250   1.000000
    4      -19.087056   1.000000
    5      -19.087052   1.000000
    6      -19.086833   1.000000
    7      -19.082289   1.000000
    8      -19.082268   1.000000
    9      -10.186918   1.000000
   10      -10.186915   1.000000
   11      -10.177094   1.000000
   12      -10.006188   1.000000
   13      -10.006187   1.000000
   14       -9.993277   1.000000
   15       -8.250925   1.000000
   16       -8.163064   1.000000
   17       -8.163054   1.000000
   18       -6.943441   1.000000
   19        0.971241   1.000000
   20        1.788023   0.999083
   21        1.788044   0.999081
   22        3.054093   0.000000
   23        3.543435   0.000000
   24        4.518761   0.000000
   25        5.113359   0.000000
 
  0.3750000E+00  0.2500000E+00  0.1250000E+00  0.4687500E-01
    1      -25.942483   1.000000
    2      -25.933913   1.000000
    3      -21.385448   1.000000
    4      -19.087135   1.000000
    5      -19.087106   1.000000
    6      -19.086996   1.000000
    7      -19.082348   1.000000
    8      -19.082317   1.000000
    9      -10.161223   1.000000
   10      -10.135339   1.000000
   11      -10.106804   1.000000
   12      -10.062728   1.000000
   13      -10.047167   1.000000
   14      -10.018789   1.000000
   15       -8.233493   1.000000
   16       -8.184845   1.000000
   17       -8.184020   1.000000
   18       -6.955660   1.000000
   19        0.877795   1.000000
   20        1.588549   1.000000
   21        1.670142   1.000000
   22        3.532590   0.000000
   23        3.889091   0.000000
   24        4.294528   0.000000
   25        4.732824   0.000000
 
  0.5000000E+00  0.2500000E+00  0.1250000E+00  0.9375000E-01
    1      -25.940426   1.000000
    2      -25.935808   1.000000
    3      -21.385842   1.000000
    4      -19.087111   1.000000
    5      -19.087059   1.000000
    6      -19.086932   1.000000
    7      -19.082342   1.000000
    8      -19.082318   1.000000
    9      -10.177059   1.000000
   10      -10.128672   1.000000
   11      -10.118077   1.000000
   12      -10.067995   1.000000
   13      -10.042167   1.000000
   14      -10.015959   1.000000
   15       -8.224048   1.000000
   16       -8.187799   1.000000
   17       -8.177270   1.000000
   18       -6.938067   1.000000
   19        0.911889   1.000000
   20        1.476938   1.000000
   21        1.569388   1.000000
   22        3.814406   0.000000
   23        4.161006   0.000000
   24        4.395979   0.000000
   25        4.797565   0.000000
 
 -0.3750000E+00  0.2500000E+00  0.1250000E+00  0.4687500E-01
    1      -25.938100   1.000000
    2      -25.938068   1.000000
    3      -21.386005   1.000000
    4      -19.087101   1.000000
    5      -19.087041   1.000000
    6      -19.086897   1.000000
    7      -19.082343   1.000000
    8      -19.082316   1.000000
    9      -10.183541   1.000000
   10      -10.133734   1.000000
   11      -10.104756   1.000000
   12      -10.085081   1.000000
   13      -10.027994   1.000000
   14      -10.022472   1.000000
   15       -8.214686   1.000000
   16       -8.193245   1.000000
   17       -8.174400   1.000000
   18       -6.932287   1.000000
   19        0.959778   1.000000
   20        1.379144   1.000000
   21        1.549095   1.000000
   22        4.023398   0.000000
   23        4.101455   0.000000
   24        4.614112   0.000000
   25        4.773581   0.000000
 
  0.5000000E+00  0.3750000E+00  0.1250000E+00  0.4687500E-01
    1      -25.940554   1.000000
    2      -25.935608   1.000000
    3      -21.386019   1.000000
    4      -19.087086   1.000000
    5      -19.087047   1.000000
    6      -19.086910   1.000000
    7      -19.082322   1.000000
    8      -19.082304   1.000000
    9      -10.193086   1.000000
   10      -10.154185   1.000000
   11      -10.143087   1.000000
   12      -10.038084   1.000000
   13      -10.015566   1.000000
   14      -10.008108   1.000000
   15       -8.237718   1.000000
   16       -8.177531   1.000000
   17       -8.169456   1.000000
   18       -6.940663   1.000000
   19        0.933775   1.000000
   20        1.607663   1.000000
   21        1.644168   1.000000
   22        3.552099   0.000000
   23        3.846782   0.000000
   24        4.443870   0.000000
   25        4.692247   0.000000
 
 -0.3750000E+00  0.3750000E+00  0.1250000E+00  0.9375000E-01
    1      -25.938985   1.000000
    2      -25.937113   1.000000
    3      -21.386179   1.000000
    4      -19.087072   1.000000
    5      -19.086993   1.000000
    6      -19.086914   1.000000
    7      -19.082326   1.000000
    8      -19.082293   1.000000
    9      -10.208783   1.000000
   10      -10.146844   1.000000
   11      -10.127443   1.000000
   12      -10.064466   1.000000
   13      -10.009685   1.000000
   14      -10.003032   1.000000
   15       -8.220278   1.000000
   16       -8.188621   1.000000
   17       -8.167074   1.000000
   18       -6.937084   1.000000
   19        1.096662   1.000000
   20        1.369384   1.000000
   21        1.595013   1.000000
   22        3.754683   0.000000
   23        3.925288   0.000000
   24        4.506275   0.000000
   25        4.698709   0.000000
 
 -0.2500000E+00  0.3750000E+00  0.1250000E+00  0.4687500E-01
    1      -25.938799   1.000000
    2      -25.937329   1.000000
    3      -21.386109   1.000000
    4      -19.087087   1.000000
    5      -19.086977   1.000000
    6      -19.086946   1.000000
    7      -19.082335   1.000000
    8      -19.082300   1.000000
    9      -10.203027   1.000000
   10      -10.138685   1.000000
   11      -10.097664   1.000000
   12      -10.095339   1.000000
   13      -10.021914   1.000000
   14      -10.002672   1.000000
   15       -8.206912   1.000000
   16       -8.200530   1.000000
   17       -8.170576   1.000000
   18       -6.935772   1.000000
   19        1.093797   1.000000
   20        1.324395   1.000000
   21        1.552314   1.000000
   22        3.903515   0.000000
   23        4.173020   0.000000
   24        4.247493   0.000000
   25        4.825433   0.000000
 
 -0.3750000E+00  0.5000000E+00  0.1250000E+00  0.2343750E-01
    1      -25.939757   1.000000
    2      -25.936311   1.000000
    3      -21.386255   1.000000
    4      -19.087056   1.000000
    5      -19.087027   1.000000
    6      -19.086878   1.000000
    7      -19.082305   1.000000
    8      -19.082278   1.000000
    9      -10.210117   1.000000
   10      -10.161850   1.000000
   11      -10.153931   1.000000
   12      -10.034199   1.000000
   13      -10.004380   1.000000
   14       -9.995088   1.000000
   15       -8.236673   1.000000
   16       -8.174683   1.000000
   17       -8.163460   1.000000
   18       -6.940550   1.000000
   19        1.045556   1.000000
   20        1.576387   1.000000
   21        1.655456   1.000000
   22        3.429148   0.000000
   23        3.660912   0.000000
   24        4.591991   0.000000
   25        4.839417   0.000000
 
 -0.2500000E+00  0.5000000E+00  0.2500000E+00  0.1171875E-01
    1      -25.938038   1.000000
    2      -25.938036   1.000000
    3      -21.386244   1.000000
    4      -19.087041   1.000000
    5      -19.086946   1.000000
    6      -19.086942   1.000000
    7      -19.082318   1.000000
    8      -19.082281   1.000000
    9      -10.221460   1.000000
   10      -10.142619   1.000000
   11      -10.099486   1.000000
   12      -10.099483   1.000000
   13      -10.000925   1.000000
   14       -9.998553   1.000000
   15       -8.204376   1.000000
   16       -8.204364   1.000000
   17       -8.163857   1.000000
   18       -6.937637   1.000000
   19        1.260442   1.000000
   20        1.260470   1.000000
   21        1.543027   1.000000
   22        3.747858   0.000000
   23        4.181083   0.000000
   24        4.181094   0.000000
   25        4.622470   0.000000
