       N       E                     dE             d eps       ncg     rms          rms(c)
DAV:   1     0.374548017691E+03    0.37455E+03   -0.19116E+04  1450   0.152E+03
DAV:   2     0.260643067562E+02   -0.34848E+03   -0.34487E+03  1753   0.346E+02
DAV:   3    -0.771435055900E+01   -0.33779E+02   -0.33725E+02  1864   0.119E+02
DAV:   4    -0.892149263683E+01   -0.12071E+01   -0.12058E+01  2350   0.238E+01
DAV:   5    -0.896121437927E+01   -0.39722E-01   -0.39716E-01  2123   0.291E+00    0.410E+00
DAV:   6    -0.807142007919E+01    0.88979E+00   -0.22033E+00  1764   0.445E+00    0.269E+00
DAV:   7    -0.792855225301E+01    0.14287E+00   -0.10977E+00  1845   0.357E+00    0.139E+00
DAV:   8    -0.793953404845E+01   -0.10982E-01   -0.14406E-01  1774   0.206E+00    0.316E-01
DAV:   9    -0.793876361006E+01    0.77044E-03   -0.45960E-02  1828   0.697E-01    0.147E-01
DAV:  10    -0.793807874125E+01    0.68487E-03   -0.64605E-03  1809   0.303E-01    0.312E-02
DAV:  11    -0.793817528774E+01   -0.96546E-04   -0.39073E-04  2202   0.867E-02    0.249E-02
DAV:  12    -0.793815795096E+01    0.17337E-04   -0.30101E-04  1550   0.420E-02    0.566E-03
DAV:  13    -0.793815664852E+01    0.13024E-05   -0.20886E-05  1372   0.151E-02
   1 F= -.79381566E+01 E0= -.79381564E+01  d E =-.793816E+01
       N       E                     dE             d eps       ncg     rms          rms(c)
DAV:   1    -0.799179553166E+01   -0.53638E-01   -0.13275E+00  1480   0.101E+01    0.106E+00
DAV:   2    -0.795118114287E+01    0.40614E-01   -0.93257E-02  1681   0.255E+00    0.484E-01
DAV:   3    -0.794111843607E+01    0.10063E-01   -0.36676E-02  1716   0.153E+00    0.602E-02
DAV:   4    -0.794124452439E+01   -0.12609E-03   -0.23665E-03  2223   0.221E-01    0.498E-02
DAV:   5    -0.794129004749E+01   -0.45523E-04   -0.61396E-04  1626   0.133E-01    0.202E-02
DAV:   6    -0.794125870460E+01    0.31343E-04   -0.92358E-05  1539   0.645E-02    0.115E-02
DAV:   7    -0.794125347409E+01    0.52305E-05   -0.30811E-05  1173   0.220E-02
   2 F= -.79412535E+01 E0= -.79412524E+01  d E =-.309683E-02
       N       E                     dE             d eps       ncg     rms          rms(c)
DAV:   1    -0.800819867734E+01   -0.66940E-01   -0.17261E+00  1478   0.116E+01    0.121E+00
DAV:   2    -0.795549527158E+01    0.52703E-01   -0.12075E-01  1678   0.289E+00    0.552E-01
DAV:   3    -0.794240020878E+01    0.13095E-01   -0.47629E-02  1713   0.174E+00    0.685E-02
DAV:   4    -0.794256678470E+01   -0.16658E-03   -0.30611E-03  2212   0.249E-01    0.569E-02
DAV:   5    -0.794262977816E+01   -0.62993E-04   -0.80429E-04  1615   0.151E-01    0.231E-02
DAV:   6    -0.794258955244E+01    0.40226E-04   -0.12391E-04  1504   0.739E-02    0.132E-02
DAV:   7    -0.794258319263E+01    0.63598E-05   -0.40953E-05  1178   0.248E-02
   3 F= -.79425832E+01 E0= -.79425791E+01  d E =-.442654E-02
       N       E                     dE             d eps       ncg     rms          rms(c)
DAV:   1    -0.794311615701E+01   -0.52660E-03   -0.13649E-02  1480   0.102E+00    0.109E-01
DAV:   2    -0.794270018384E+01    0.41597E-03   -0.94378E-04  1690   0.257E-01    0.492E-02
DAV:   3    -0.794259582079E+01    0.10436E-03   -0.38152E-04  1718   0.155E-01    0.632E-03
DAV:   4    -0.794259474530E+01    0.10755E-05   -0.22226E-05  1298   0.226E-02    0.496E-03
DAV:   5    -0.794259362712E+01    0.11182E-05   -0.49083E-06   771   0.141E-02
   4 F= -.79425936E+01 E0= -.79425890E+01  d E =-.443698E-02
