 vasp.5.4.4.18Apr17-6-g9f103f2a35 (build Jun 23 2019 17:35:09) complex          
  
 executed on             LinuxIFC date 2020.01.14  23:18:53
 running on   28 total cores
 distrk:  each k-point on    7 cores,    4 groups
 distr:  one band on NCORES_PER_BAND=   7 cores,    1 groups


--------------------------------------------------------------------------------------------------------


 INCAR:
 POTCAR:    PAW_PBE Bi_d 06Sep2000                
 POTCAR:    PAW_PBE Cs_sv 08Apr2002               
 POTCAR:    PAW_PBE Rb_sv 06Sep2000               

 ----------------------------------------------------------------------------- 
|                                                                             |
|           W    W    AA    RRRRR   N    N  II  N    N   GGGG   !!!           |
|           W    W   A  A   R    R  NN   N  II  NN   N  G    G  !!!           |
|           W    W  A    A  R    R  N N  N  II  N N  N  G       !!!           |
|           W WW W  AAAAAA  RRRRR   N  N N  II  N  N N  G  GGG   !            |
|           WW  WW  A    A  R   R   N   NN  II  N   NN  G    G                |
|           W    W  A    A  R    R  N    N  II  N    N   GGGG   !!!           |
|                                                                             |
|      You have enabled k-point parallelism (KPAR>1).                         |
|      This developmental code was originally  written by Paul Kent at ORNL,  |
|      and carefully double checked in Vienna.                                |
|      GW as well as linear response parallelism added by Martijn Marsman     |
|      and Georg Kresse.                                                      |
|      Carefully verify results versus KPAR=1.                                |
|      Report problems to Paul Kent and Vienna.                               |
|                                                                             |
 ----------------------------------------------------------------------------- 

 POTCAR:    PAW_PBE Bi_d 06Sep2000                
   VRHFIN =Bi:                                                                  
   LEXCH  = PE                                                                  
   EATOM  =  1959.2045 eV,  143.9975 Ry                                         
                                                                                
   TITEL  = PAW_PBE Bi_d 06Sep2000                                              
   LULTRA =        F    use ultrasoft PP ?                                      
   IUNSCR =        1    unscreen: 0-lin 1-nonlin 2-no                           
   RPACOR =    2.200    partial core radius                                     
   POMASS =  208.980; ZVAL   =   15.000    mass and valenz                      
   RCORE  =    2.500    outmost cutoff radius                                   
   RWIGS  =    3.090; RWIGS  =    1.635    wigner-seitz radius (au A)           
   ENMAX  =  242.839; ENMIN  =  182.129 eV                                      
   ICORE  =        3    local potential                                         
   LCOR   =        T    correct aug charges                                     
   LPAW   =        T    paw PP                                                  
   EAUG   =  442.899                                                            
   DEXC   =    0.000                                                            
   RMAX   =    2.551    core radius for proj-oper                               
   RAUG   =    1.300    factor for augmentation sphere                          
   RDEP   =    2.650    radius for radial grids                                 
   RDEPT  =    2.039    core radius for aug-charge                              
                                                                                
   Atomic configuration                                                         
   16 entries                                                                   
     n  l   j            E        occ.                                          
     1  0  0.50    -90639.6581   2.0000                                         
     2  0  0.50    -16282.4666   2.0000                                         
     2  1  1.50    -13922.8286   6.0000                                         
     3  0  0.50     -3930.4763   2.0000                                         
     3  1  1.50     -3256.7013   6.0000                                         
     3  2  2.50     -2581.6168  10.0000                                         
     4  0  0.50      -902.2614   2.0000                                         
     4  1  1.50      -681.5915   6.0000                                         
     4  2  2.50      -429.8249  10.0000                                         
     4  3  3.50      -152.6004  14.0000                                         
     5  0  0.50      -157.7156   2.0000                                         
     5  1  1.50       -95.8054   6.0000                                         
     5  2  2.50       -27.0806  10.0000                                         
     6  0  0.50       -14.4732   2.0000                                         
     6  1  1.50        -4.5702   3.0000                                         
     5  3  2.50        -2.7212   0.0000                                         
   Description                                                                  
     l       E           TYP  RCUT    TYP  RCUT                                 
     2    -27.0805982     23  2.500                                             
     2     -1.3605826     23  2.500                                             
     0    -14.4732271     23  2.500                                             
     0      6.8029130     23  2.500                                             
     1     -4.5701651     23  2.500                                             
     1     13.6058260     23  2.500                                             
     3     -1.3605826      7  2.500                                             
  local pseudopotential read in
  partial core-charges read in
  partial kinetic energy density read in
  atomic valenz-charges read in
  non local Contribution for L=           2  read in
    real space projection operators read in
  non local Contribution for L=           2  read in
    real space projection operators read in
  non local Contribution for L=           0  read in
    real space projection operators read in
  non local Contribution for L=           0  read in
    real space projection operators read in
  non local Contribution for L=           1  read in
    real space projection operators read in
  non local Contribution for L=           1  read in
    real space projection operators read in
    PAW grid and wavefunctions read in
 
   number of l-projection  operators is LMAX  =           6
   number of lm-projection operators is LMMAX =          18
 
 POTCAR:    PAW_PBE Cs_sv 08Apr2002               
   VRHFIN =Cs: 5s5p6s                                                           
   LEXCH  = PE                                                                  
   EATOM  =   555.6835 eV,   40.8416 Ry                                         
                                                                                
   TITEL  = PAW_PBE Cs_sv 08Apr2002                                             
   LULTRA =        F    use ultrasoft PP ?                                      
   IUNSCR =        1    unscreen: 0-lin 1-nonlin 2-no                           
   RPACOR =    2.200    partial core radius                                     
   POMASS =  132.900; ZVAL   =    9.000    mass and valenz                      
   RCORE  =    2.500    outmost cutoff radius                                   
   RWIGS  =    2.500; RWIGS  =    1.323    wigner-seitz radius (au A)           
   ENMAX  =  220.318; ENMIN  =  165.238 eV                                      
   RCLOC  =    2.207    cutoff for local pot                                    
   LCOR   =        T    correct aug charges                                     
   LPAW   =        T    paw PP                                                  
   EAUG   =  407.933                                                            
   DEXC   =    0.000                                                            
   RMAX   =    2.554    core radius for proj-oper                               
   RAUG   =    1.300    factor for augmentation sphere                          
   RDEP   =    2.590    radius for radial grids                                 
   RDEPT  =    2.117    core radius for aug-charge                              
                                                                                
   Atomic configuration                                                         
   13 entries                                                                   
     n  l   j            E        occ.                                          
     1  0  0.50    -35790.1377   2.0000                                         
     2  0  0.50     -5613.6201   2.0000                                         
     2  1  1.50     -5035.0101   6.0000                                         
     3  0  0.50     -1167.0767   2.0000                                         
     3  1  1.50      -980.9754   6.0000                                         
     3  2  2.50      -708.0703  10.0000                                         
     4  0  0.50      -220.2386   2.0000                                         
     4  1  1.50      -160.7596   6.0000                                         
     4  2  2.50       -74.2354  10.0000                                         
     5  0  0.50       -26.7287   2.0000                                         
     6  0  0.50        -2.0862   1.0000                                         
     5  1  1.50       -13.5159   6.0000                                         
     5  2  2.50        -0.4136   0.0000                                         
   Description                                                                  
     l       E           TYP  RCUT    TYP  RCUT                                 
     0    -26.7287425     23  1.900                                             
     0     -2.0862306     23  1.900                                             
     1    -13.5158719     23  2.500                                             
     1     -2.7211652     23  2.500                                             
     2     -0.4136171     23  2.500                                             
  local pseudopotential read in
  partial core-charges read in
  partial kinetic energy density read in
  atomic valenz-charges read in
  non local Contribution for L=           0  read in
    real space projection operators read in
  non local Contribution for L=           0  read in
    real space projection operators read in
  non local Contribution for L=           1  read in
    real space projection operators read in
  non local Contribution for L=           1  read in
    real space projection operators read in
  non local Contribution for L=           2  read in
    real space projection operators read in
    PAW grid and wavefunctions read in
 
   number of l-projection  operators is LMAX  =           5
   number of lm-projection operators is LMMAX =          13
 
 POTCAR:    PAW_PBE Rb_sv 06Sep2000               
   VRHFIN =Rb: 4s4p5s                                                           
   LEXCH  = PE                                                                  
   EATOM  =   662.5034 eV,   48.6926 Ry                                         
                                                                                
   TITEL  = PAW_PBE Rb_sv 06Sep2000                                             
   LULTRA =        F    use ultrasoft PP ?                                      
   IUNSCR =        1    unscreen: 0-lin 1-nonlin 2-no                           
   RPACOR =    2.200    partial core radius                                     
   POMASS =   85.468; ZVAL   =    9.000    mass and valenz                      
   RCORE  =    2.500    outmost cutoff radius                                   
   RWIGS  =    4.570; RWIGS  =    2.418    wigner-seitz radius (au A)           
   ENMAX  =  220.112; ENMIN  =  165.084 eV                                      
   RCLOC  =    2.200    cutoff for local pot                                    
   LCOR   =        T    correct aug charges                                     
   LPAW   =        T    paw PP                                                  
   EAUG   =  423.861                                                            
   DEXC   =    0.000                                                            
   RMAX   =    2.546    core radius for proj-oper                               
   RAUG   =    1.300    factor for augmentation sphere                          
   RDEP   =    2.541    radius for radial grids                                 
   RDEPT  =    2.044    core radius for aug-charge                              
                                                                                
   Atomic configuration                                                         
   10 entries                                                                   
     n  l   j            E        occ.                                          
     1  0  0.50    -15031.5419   2.0000                                         
     2  0  0.50     -2007.8842   2.0000                                         
     2  1  1.50     -1779.8144   6.0000                                         
     3  0  0.50      -297.9619   2.0000                                         
     3  1  1.50      -224.8335   6.0000                                         
     3  2  2.50      -103.9539  10.0000                                         
     4  0  0.50       -31.8932   2.0000                                         
     5  0  0.50        -2.2327   0.9990                                         
     4  1  1.50       -15.9645   6.0000                                         
     4  2  1.50        -0.0020   0.0010                                         
   Description                                                                  
     l       E           TYP  RCUT    TYP  RCUT                                 
     0    -31.8932387     23  2.500                                             
     0     -2.2326525     23  2.500                                             
     1    -15.9644597     23  2.500                                             
     1    -17.3250423     23  2.500                                             
     2     -0.0020100     23  2.500                                             
  local pseudopotential read in
  partial core-charges read in
  partial kinetic energy density read in
  atomic valenz-charges read in
  non local Contribution for L=           0  read in
    real space projection operators read in
  non local Contribution for L=           0  read in
    real space projection operators read in
  non local Contribution for L=           1  read in
    real space projection operators read in
  non local Contribution for L=           1  read in
    real space projection operators read in
  non local Contribution for L=           2  read in
    real space projection operators read in
    PAW grid and wavefunctions read in
 
   number of l-projection  operators is LMAX  =           5
   number of lm-projection operators is LMMAX =          13
 
  PAW_PBE Bi_d 06Sep2000                :
 energy of atom  1       EATOM=-1959.2045
 kinetic energy error for atom=    0.0040 (will be added to EATOM!!)
  PAW_PBE Cs_sv 08Apr2002               :
 energy of atom  2       EATOM= -555.6835
 kinetic energy error for atom=    0.0016 (will be added to EATOM!!)
  PAW_PBE Rb_sv 06Sep2000               :
 energy of atom  3       EATOM= -662.5034
 kinetic energy error for atom=    0.0006 (will be added to EATOM!!)
 
 
 POSCAR: Cs Bi Rb                                
  positions in direct lattice
  No initial velocities read in
 exchange correlation table for  LEXCH =        8
   RHO(1)=    0.500       N(1)  =     2000
   RHO(2)=  100.500       N(2)  =     4000
 


--------------------------------------------------------------------------------------------------------


 ion  position               nearest neighbor table
   1  0.250  0.250  0.250-   4 3.96   3 3.96   3 3.96   3 3.96   4 3.96   4 3.96   4 3.96   3 3.96

   2  0.750  0.750  0.750-   4 3.96   4 3.96   4 3.96   3 3.96   3 3.96   3 3.96   3 3.96   4 3.96

   3  0.000  0.000  0.000-   1 3.96   1 3.96   1 3.96   2 3.96   2 3.96   2 3.96   2 3.96   1 3.96
                             4 4.57   4 4.57   4 4.57   4 4.57   4 4.57   4 4.57
   4  0.500  0.500  0.500-   1 3.96   2 3.96   2 3.96   2 3.96   1 3.96   1 3.96   1 3.96   2 3.96
                             3 4.57   3 4.57   3 4.57   3 4.57   3 4.57   3 4.57
 
  LATTYP: Found a face centered cubic cell.
 ALAT       =     9.1371880000
  
  Lattice vectors:
  
 A1 = (   0.0000000000,   4.5685940000,   4.5685940000)
 A2 = (   4.5685940000,   0.0000000000,   4.5685940000)
 A3 = (   4.5685940000,   4.5685940000,   0.0000000000)


Analysis of symmetry for initial positions (statically):
=====================================================================
 Subroutine PRICEL returns:
 Original cell was already a primitive cell.
 

 Routine SETGRP: Setting up the symmetry group for a 
 face centered cubic supercell.


 Subroutine GETGRP returns: Found 48 space group operations
 (whereof 24 operations were pure point group operations)
 out of a pool of 48 trial point group operations.


The static configuration has the point symmetry T_d .
 The point group associated with its full space group is O_h .


Analysis of symmetry for dynamics (positions and initial velocities):
=====================================================================
 Subroutine PRICEL returns:
 Original cell was already a primitive cell.
 

 Routine SETGRP: Setting up the symmetry group for a 
 face centered cubic supercell.


 Subroutine GETGRP returns: Found 48 space group operations
 (whereof 24 operations were pure point group operations)
 out of a pool of 48 trial point group operations.


The dynamic configuration has the point symmetry T_d .
 The point group associated with its full space group is O_h .


 Subroutine INISYM returns: Found 48 space group operations
 (whereof 24 operations are pure point group operations),
 and found     1 'primitive' translations

 
 
 KPOINTS: KPOINTS                                 

Automatic generation of k-mesh.
Space group operators:
 irot       det(A)        alpha          n_x          n_y          n_z        tau_x        tau_y        tau_z
    1     1.000000     0.000000     1.000000     0.000000     0.000000     0.000000     0.000000     0.000000
    2     1.000000   120.000000    -0.577350    -0.577350    -0.577350     0.000000     0.000000     0.000000
    3     1.000000   120.000000     0.577350     0.577350     0.577350     0.000000     0.000000     0.000000
    4    -1.000000    90.000000     0.000000     0.000000    -1.000000     0.000000     0.000000     0.000000
    5    -1.000000   180.000000     0.000000     0.707107     0.707107     0.000000     0.000000     0.000000
    6    -1.000000    90.000000     0.000000     1.000000     0.000000     0.000000     0.000000     0.000000
    7     1.000000   180.000000     0.000000     0.000000     1.000000     0.000000     0.000000     0.000000
    8     1.000000   120.000000    -0.577350     0.577350     0.577350     0.000000     0.000000     0.000000
    9     1.000000   120.000000    -0.577350     0.577350    -0.577350     0.000000     0.000000     0.000000
   10    -1.000000    90.000000     0.000000     0.000000     1.000000     0.000000     0.000000     0.000000
   11    -1.000000    90.000000    -1.000000     0.000000     0.000000     0.000000     0.000000     0.000000
   12    -1.000000   180.000000     0.707107     0.000000     0.707107     0.000000     0.000000     0.000000
   13     1.000000   120.000000     0.577350    -0.577350     0.577350     0.000000     0.000000     0.000000
   14     1.000000   120.000000    -0.577350    -0.577350     0.577350     0.000000     0.000000     0.000000
   15     1.000000   180.000000     1.000000     0.000000     0.000000     0.000000     0.000000     0.000000
   16    -1.000000    90.000000     0.000000    -1.000000     0.000000     0.000000     0.000000     0.000000
   17    -1.000000   180.000000     0.707107     0.707107     0.000000     0.000000     0.000000     0.000000
   18    -1.000000    90.000000     1.000000     0.000000     0.000000     0.000000     0.000000     0.000000
   19     1.000000   120.000000     0.577350    -0.577350    -0.577350     0.000000     0.000000     0.000000
   20     1.000000   180.000000     0.000000     1.000000     0.000000     0.000000     0.000000     0.000000
   21     1.000000   120.000000     0.577350     0.577350    -0.577350     0.000000     0.000000     0.000000
   22    -1.000000   180.000000     0.000000    -0.707107     0.707107     0.000000     0.000000     0.000000
   23    -1.000000   180.000000     0.707107    -0.707107     0.000000     0.000000     0.000000     0.000000
   24    -1.000000   180.000000     0.707107     0.000000    -0.707107     0.000000     0.000000     0.000000
   25    -1.000000     0.000000     1.000000     0.000000     0.000000     0.500001     0.500001     0.500001
   26    -1.000000   120.000000    -0.577350    -0.577350    -0.577350     0.500001     0.500001     0.500001
   27    -1.000000   120.000000     0.577350     0.577350     0.577350     0.500001     0.500001     0.500001
   28     1.000000    90.000000     0.000000     0.000000    -1.000000     0.499999     0.500001     0.500001
   29     1.000000   180.000000     0.000000     0.707107     0.707107     0.499999     0.500001     0.500001
   30     1.000000    90.000000     0.000000     1.000000     0.000000     0.499999     0.500001     0.500001
   31    -1.000000   180.000000     0.000000     0.000000     1.000000     0.500001     0.500001     0.499999
   32    -1.000000   120.000000    -0.577350     0.577350     0.577350     0.500001     0.500001     0.499999
   33    -1.000000   120.000000    -0.577350     0.577350    -0.577350     0.500001     0.500001     0.499999
   34     1.000000    90.000000     0.000000     0.000000     1.000000     0.500001     0.499999     0.500001
   35     1.000000    90.000000    -1.000000     0.000000     0.000000     0.500001     0.499999     0.500001
   36     1.000000   180.000000     0.707107     0.000000     0.707107     0.500001     0.499999     0.500001
   37    -1.000000   120.000000     0.577350    -0.577350     0.577350     0.499999     0.500001     0.500001
   38    -1.000000   120.000000    -0.577350    -0.577350     0.577350     0.499999     0.500001     0.500001
   39    -1.000000   180.000000     1.000000     0.000000     0.000000     0.499999     0.500001     0.500001
   40     1.000000    90.000000     0.000000    -1.000000     0.000000     0.500001     0.500001     0.499999
   41     1.000000   180.000000     0.707107     0.707107     0.000000     0.500001     0.500001     0.499999
   42     1.000000    90.000000     1.000000     0.000000     0.000000     0.500001     0.500001     0.499999
   43    -1.000000   120.000000     0.577350    -0.577350    -0.577350     0.500001     0.499999     0.500001
   44    -1.000000   180.000000     0.000000     1.000000     0.000000     0.500001     0.499999     0.500001
   45    -1.000000   120.000000     0.577350     0.577350    -0.577350     0.500001     0.499999     0.500001
   46     1.000000   180.000000     0.000000    -0.707107     0.707107     0.500001     0.500001     0.500001
   47     1.000000   180.000000     0.707107    -0.707107     0.000000     0.500001     0.500001     0.500001
   48     1.000000   180.000000     0.707107     0.000000    -0.707107     0.500001     0.500001     0.500001
 
 Subroutine IBZKPT returns following result:
 ===========================================
 
 Found     29 irreducible k-points:
 
 Following reciprocal coordinates:
            Coordinates               Weight
  0.000000  0.000000  0.000000      1.000000
  0.125000  0.000000  0.000000      8.000000
  0.250000  0.000000  0.000000      8.000000
  0.375000  0.000000  0.000000      8.000000
  0.500000  0.000000  0.000000      4.000000
  0.125000  0.125000  0.000000      6.000000
  0.250000  0.125000  0.000000     24.000000
  0.375000  0.125000  0.000000     24.000000
  0.500000  0.125000  0.000000     24.000000
 -0.375000  0.125000  0.000000     24.000000
 -0.250000  0.125000  0.000000     24.000000
 -0.125000  0.125000  0.000000     12.000000
  0.250000  0.250000  0.000000      6.000000
  0.375000  0.250000  0.000000     24.000000
  0.500000  0.250000  0.000000     24.000000
 -0.375000  0.250000  0.000000     24.000000
 -0.250000  0.250000  0.000000     12.000000
  0.375000  0.375000  0.000000      6.000000
  0.500000  0.375000  0.000000     24.000000
 -0.375000  0.375000  0.000000     12.000000
  0.500000  0.500000  0.000000      3.000000
  0.375000  0.250000  0.125000     24.000000
  0.500000  0.250000  0.125000     48.000000
 -0.375000  0.250000  0.125000     24.000000
  0.500000  0.375000  0.125000     24.000000
 -0.375000  0.375000  0.125000     48.000000
 -0.250000  0.375000  0.125000     24.000000
 -0.375000  0.500000  0.125000     12.000000
 -0.250000  0.500000  0.250000      6.000000
 
 Following cartesian coordinates:
            Coordinates               Weight
  0.000000  0.000000  0.000000      1.000000
 -0.013680  0.013680  0.013680      8.000000
 -0.027361  0.027361  0.027361      8.000000
 -0.041041  0.041041  0.041041      8.000000
 -0.054721  0.054721  0.054721      4.000000
  0.000000  0.000000  0.027361      6.000000
 -0.013680  0.013680  0.041041     24.000000
 -0.027361  0.027361  0.054721     24.000000
 -0.041041  0.041041  0.068402     24.000000
  0.054721 -0.054721 -0.027361     24.000000
  0.041041 -0.041041 -0.013680     24.000000
  0.027361 -0.027361  0.000000     12.000000
  0.000000  0.000000  0.054721      6.000000
 -0.013680  0.013680  0.068402     24.000000
 -0.027361  0.027361  0.082082     24.000000
  0.068402 -0.068402 -0.013680     24.000000
  0.054721 -0.054721  0.000000     12.000000
  0.000000  0.000000  0.082082      6.000000
 -0.013680  0.013680  0.095763     24.000000
  0.082082 -0.082082  0.000000     12.000000
  0.000000  0.000000  0.109443      3.000000
  0.000000  0.027361  0.054721     24.000000
 -0.013680  0.041041  0.068402     48.000000
  0.082082 -0.054721 -0.027361     24.000000
  0.000000  0.027361  0.082082     24.000000
  0.095763 -0.068402 -0.013680     48.000000
  0.082082 -0.054721 -0.000000     24.000000
  0.109443 -0.082082  0.000000     12.000000
  0.109443 -0.054721  0.000000      6.000000
 


--------------------------------------------------------------------------------------------------------




 Dimension of arrays:
   k-points           NKPTS =     29   k-points in BZ     NKDIM =     29   number of bands    NBANDS=     25
   number of dos      NEDOS =    301   number of ions     NIONS =      4
   non local maximal  LDIM  =      6   non local SUM 2l+1 LMDIM =     18
   total plane-waves  NPLWV = 110592
   max r-space proj   IRMAX =      1   max aug-charges    IRDMAX=  29188
   dimension x,y,z NGX =    48 NGY =   48 NGZ =   48
   dimension x,y,z NGXF=    96 NGYF=   96 NGZF=   96
   support grid    NGXF=    96 NGYF=   96 NGZF=   96
   ions per type =               1   1   2
   NGX,Y,Z   is equivalent  to a cutoff of  12.35, 12.35, 12.35 a.u.
   NGXF,Y,Z  is equivalent  to a cutoff of  24.70, 24.70, 24.70 a.u.

 SYSTEM =  unknown system                          
 POSCAR =  Cs Bi Rb                                

 Startparameter for this run:
   NWRITE =      2    write-flag & timer
   PREC   = acc       normal or accurate (medium, high low for compatibility)
   ISTART =      0    job   : 0-new  1-cont  2-samecut
   ICHARG =      2    charge: 1-file 2-atom 10-const
   ISPIN  =      1    spin polarized calculation?
   LNONCOLLINEAR =      F non collinear calculations
   LSORBIT =      F    spin-orbit coupling
   INIWAV =      1    electr: 0-lowe 1-rand  2-diag
   LASPH  =      F    aspherical Exc in radial PAW
   METAGGA=      F    non-selfconsistent MetaGGA calc.

 Electronic Relaxation 1
   ENCUT  =  520.0 eV  38.22 Ry    6.18 a.u.  12.01 12.01 12.01*2*pi/ulx,y,z
   ENINI  =  520.0     initial cutoff
   ENAUG  =  442.9 eV  augmentation charge cutoff
   NELM   =     60;   NELMIN=  5; NELMDL= -5     # of ELM steps 
   EDIFF  = 0.1E-04   stopping-criterion for ELM
   LREAL  =      F    real-space projection
   NLSPLINE    = F    spline interpolate recip. space projectors
   LCOMPAT=      F    compatible to vasp.4.4
   GGA_COMPAT  = T    GGA compatible to vasp.4.4-vasp.4.6
   LMAXPAW     = -100 max onsite density
   LMAXMIX     =    2 max onsite mixed and CHGCAR
   VOSKOWN=      0    Vosko Wilk Nusair interpolation
   ROPT   =    0.00000   0.00000   0.00000
 Ionic relaxation
   EDIFFG = -.1E-02   stopping-criterion for IOM
   NSW    =    100    number of steps for IOM
   NBLOCK =      1;   KBLOCK =    100    inner block; outer block 
   IBRION =      2    ionic relax: 0-MD 1-quasi-New 2-CG
   NFREE  =      1    steps in history (QN), initial steepest desc. (CG)
   ISIF   =      3    stress and relaxation
   IWAVPR =     11    prediction:  0-non 1-charg 2-wave 3-comb
   ISYM   =      2    0-nonsym 1-usesym 2-fastsym
   LCORR  =      T    Harris-Foulkes like correction to forces

   POTIM  = 0.5000    time-step for ionic-motion
   TEIN   =    0.0    initial temperature
   TEBEG  =    0.0;   TEEND  =   0.0 temperature during run
   SMASS  =  -3.00    Nose mass-parameter (am)
   estimated Nose-frequenzy (Omega)   =  0.10E-29 period in steps =****** mass=  -0.954E-27a.u.
   SCALEE = 1.0000    scale energy and forces
   NPACO  =    256;   APACO  = 16.0  distance and # of slots for P.C.
   PSTRESS=    0.0 pullay stress

  Mass of Ions in am
   POMASS = 208.98132.90 85.47
  Ionic Valenz
   ZVAL   =  15.00  9.00  9.00
  Atomic Wigner-Seitz radii
   RWIGS  =  -1.00 -1.00 -1.00
  virtual crystal weights 
   VCA    =   1.00  1.00  1.00
   NELECT =      42.0000    total number of electrons
   NUPDOWN=      -1.0000    fix difference up-down

 DOS related values:
   EMIN   =  10.00;   EMAX   =-10.00  energy-range for DOS
   EFERMI =   0.00
   ISMEAR =     0;   SIGMA  =   0.05  broadening in eV -4-tet -1-fermi 0-gaus

 Electronic relaxation 2 (details)
   IALGO  =     38    algorithm
   LDIAG  =      T    sub-space diagonalisation (order eigenvalues)
   LSUBROT=      F    optimize rotation matrix (better conditioning)
   TURBO    =      0    0=normal 1=particle mesh
   IRESTART =      0    0=no restart 2=restart with 2 vectors
   NREBOOT  =      0    no. of reboots
   NMIN     =      0    reboot dimension
   EREF     =   0.00    reference energy to select bands
   IMIX   =      4    mixing-type and parameters
     AMIX     =   0.40;   BMIX     =  1.00
     AMIX_MAG =   1.60;   BMIX_MAG =  1.00
     AMIN     =   0.10
     WC   =   100.;   INIMIX=   1;  MIXPRE=   1;  MAXMIX= -45

 Intra band minimization:
   WEIMIN = 0.0010     energy-eigenvalue tresh-hold
   EBREAK =  0.10E-06  absolut break condition
   DEPER  =   0.30     relativ break condition  

   TIME   =   0.40     timestep for ELM

  volume/ion in A,a.u.               =      47.68       321.75
  Fermi-wavevector in a.u.,A,eV,Ry     =   0.988626  1.868232 13.298081  0.977381
  Thomas-Fermi vector in A             =   2.120166
 
 Write flags
   LWAVE        =      F    write WAVECAR
   LDOWNSAMPLE  =      F    k-point downsampling of WAVECAR
   LCHARG       =      F    write CHGCAR
   LVTOT        =      F    write LOCPOT, total local potential
   LVHAR        =      F    write LOCPOT, Hartree potential only
   LELF         =      F    write electronic localiz. function (ELF)
   LORBIT       =      0    0 simple, 1 ext, 2 COOP (PROOUT), +10 PAW based schemes


 Dipole corrections
   LMONO  =      F    monopole corrections only (constant potential shift)
   LDIPOL =      F    correct potential (dipole corrections)
   IDIPOL =      0    1-x, 2-y, 3-z, 4-all directions 
   EPSILON=  1.0000000 bulk dielectric constant

 Exchange correlation treatment:
   GGA     =    PE    GGA type
   LEXCH   =     8    internal setting for exchange type
   VOSKOWN=      0    Vosko Wilk Nusair interpolation
   LHFCALC =     F    Hartree Fock is set to
   LHFONE  =     F    Hartree Fock one center treatment
   AEXX    =    0.0000 exact exchange contribution

 Linear response parameters
   LEPSILON=     F    determine dielectric tensor
   LRPA    =     F    only Hartree local field effects (RPA)
   LNABLA  =     F    use nabla operator in PAW spheres
   LVEL    =     F    velocity operator in full k-point grid
   LINTERFAST=   F  fast interpolation
   KINTER  =     0    interpolate to denser k-point grid
   CSHIFT  =0.1000    complex shift for real part using Kramers Kronig
   OMEGAMAX=  -1.0    maximum frequency
   DEG_THRESHOLD= 0.2000000E-02 threshold for treating states as degnerate
   RTIME   =   -0.100 relaxation time in fs
  (WPLASMAI=    0.000 imaginary part of plasma frequency in eV, 0.658/RTIME)
   DFIELD  = 0.0000000 0.0000000 0.0000000 field for delta impulse in time
 
 Orbital magnetization related:
   ORBITALMAG=     F  switch on orbital magnetization
   LCHIMAG   =     F  perturbation theory with respect to B field
   DQ        =  0.001000  dq finite difference perturbation B field
   LLRAUG    =     F  two centre corrections for induced B field



--------------------------------------------------------------------------------------------------------


 conjugate gradient relaxation of ions
 charge density and potential will be updated during run
 non-spin polarized calculation
 Variant of blocked Davidson
 Davidson routine will perform the subspace rotation
 perform sub-space diagonalisation
    after iterative eigenvector-optimisation
 modified Broyden-mixing scheme, WC =      100.0
 initial mixing is a Kerker type mixing with AMIX =  0.4000 and BMIX =      1.0000
 Hartree-type preconditioning will be used
 using additional bands            4
 reciprocal scheme for non local part
 use partial core corrections
 calculate Harris-corrections to forces 
   (improved forces if not selfconsistent)
 use gradient corrections 
 use of overlap-Matrix (Vanderbilt PP)
 Gauss-broadening in eV      SIGMA  =   0.05


--------------------------------------------------------------------------------------------------------


  energy-cutoff  :      520.00
  volume of cell :      190.71
      direct lattice vectors                 reciprocal lattice vectors
     0.000000000  4.568594000  4.568594000    -0.109442861  0.109442861  0.109442861
     4.568594000  0.000000000  4.568594000     0.109442861 -0.109442861  0.109442861
     4.568594000  4.568594000  0.000000000     0.109442861  0.109442861 -0.109442861

  length of vectors
     6.460967596  6.460967596  6.460967596     0.189560596  0.189560596  0.189560596


 
 k-points in units of 2pi/SCALE and weight: KPOINTS                                 
   0.00000000  0.00000000  0.00000000       0.002
  -0.01368036  0.01368036  0.01368036       0.016
  -0.02736072  0.02736072  0.02736072       0.016
  -0.04104107  0.04104107  0.04104107       0.016
  -0.05472143  0.05472143  0.05472143       0.008
   0.00000000  0.00000000  0.02736072       0.012
  -0.01368036  0.01368036  0.04104107       0.047
  -0.02736072  0.02736072  0.05472143       0.047
  -0.04104107  0.04104107  0.06840179       0.047
   0.05472143 -0.05472143 -0.02736072       0.047
   0.04104107 -0.04104107 -0.01368036       0.047
   0.02736072 -0.02736072  0.00000000       0.023
   0.00000000  0.00000000  0.05472143       0.012
  -0.01368036  0.01368036  0.06840179       0.047
  -0.02736072  0.02736072  0.08208215       0.047
   0.06840179 -0.06840179 -0.01368036       0.047
   0.05472143 -0.05472143  0.00000000       0.023
   0.00000000  0.00000000  0.08208215       0.012
  -0.01368036  0.01368036  0.09576250       0.047
   0.08208215 -0.08208215  0.00000000       0.023
   0.00000000  0.00000000  0.10944286       0.006
   0.00000000  0.02736072  0.05472143       0.047
  -0.01368036  0.04104107  0.06840179       0.094
   0.08208215 -0.05472143 -0.02736072       0.047
   0.00000000  0.02736072  0.08208215       0.047
   0.09576250 -0.06840179 -0.01368036       0.094
   0.08208215 -0.05472143 -0.00000000       0.047
   0.10944286 -0.08208215  0.00000000       0.023
   0.10944286 -0.05472143  0.00000000       0.012
 
 k-points in reciprocal lattice and weights: KPOINTS                                 
   0.00000000  0.00000000  0.00000000       0.002
   0.12500000  0.00000000  0.00000000       0.016
   0.25000000  0.00000000  0.00000000       0.016
   0.37500000  0.00000000  0.00000000       0.016
   0.50000000  0.00000000  0.00000000       0.008
   0.12500000  0.12500000  0.00000000       0.012
   0.25000000  0.12500000  0.00000000       0.047
   0.37500000  0.12500000  0.00000000       0.047
   0.50000000  0.12500000  0.00000000       0.047
  -0.37500000  0.12500000  0.00000000       0.047
  -0.25000000  0.12500000  0.00000000       0.047
  -0.12500000  0.12500000  0.00000000       0.023
   0.25000000  0.25000000  0.00000000       0.012
   0.37500000  0.25000000  0.00000000       0.047
   0.50000000  0.25000000  0.00000000       0.047
  -0.37500000  0.25000000  0.00000000       0.047
  -0.25000000  0.25000000  0.00000000       0.023
   0.37500000  0.37500000  0.00000000       0.012
   0.50000000  0.37500000  0.00000000       0.047
  -0.37500000  0.37500000  0.00000000       0.023
   0.50000000  0.50000000  0.00000000       0.006
   0.37500000  0.25000000  0.12500000       0.047
   0.50000000  0.25000000  0.12500000       0.094
  -0.37500000  0.25000000  0.12500000       0.047
   0.50000000  0.37500000  0.12500000       0.047
  -0.37500000  0.37500000  0.12500000       0.094
  -0.25000000  0.37500000  0.12500000       0.047
  -0.37500000  0.50000000  0.12500000       0.023
  -0.25000000  0.50000000  0.25000000       0.012
 
 position of ions in fractional coordinates (direct lattice) 
   0.25000033  0.25000033  0.25000033
   0.74999989  0.74999989  0.74999989
   0.00000000  0.00000000  0.00000000
   0.49999956  0.49999956  0.49999956
 
 position of ions in cartesian coordinates  (Angst):
   2.28430000  2.28430000  2.28430000
   6.85289000  6.85289000  6.85289000
   0.00000000  0.00000000  0.00000000
   4.56859000  4.56859000  4.56859000
 


--------------------------------------------------------------------------------------------------------


 k-point  1 :   0.0000 0.0000 0.0000  plane waves:    5065
 k-point  2 :   0.1250 0.0000 0.0000  plane waves:    5083
 k-point  3 :   0.2500 0.0000 0.0000  plane waves:    5114
 k-point  4 :   0.3750 0.0000 0.0000  plane waves:    5132
 k-point  5 :   0.5000 0.0000 0.0000  plane waves:    5120
 k-point  6 :   0.1250 0.1250 0.0000  plane waves:    5093
 k-point  7 :   0.2500 0.1250 0.0000  plane waves:    5134
 k-point  8 :   0.3750 0.1250 0.0000  plane waves:    5138
 k-point  9 :   0.5000 0.1250 0.0000  plane waves:    5138
 k-point 10 :  -0.3750 0.1250 0.0000  plane waves:    5134
 k-point 11 :  -0.2500 0.1250 0.0000  plane waves:    5126
 k-point 12 :  -0.1250 0.1250 0.0000  plane waves:    5110
 k-point 13 :   0.2500 0.2500 0.0000  plane waves:    5105
 k-point 14 :   0.3750 0.2500 0.0000  plane waves:    5136
 k-point 15 :   0.5000 0.2500 0.0000  plane waves:    5133
 k-point 16 :  -0.3750 0.2500 0.0000  plane waves:    5145
 k-point 17 :  -0.2500 0.2500 0.0000  plane waves:    5166
 k-point 18 :   0.3750 0.3750 0.0000  plane waves:    5133
 k-point 19 :   0.5000 0.3750 0.0000  plane waves:    5146
 k-point 20 :  -0.3750 0.3750 0.0000  plane waves:    5134
 k-point 21 :   0.5000 0.5000 0.0000  plane waves:    5104
 k-point 22 :   0.3750 0.2500 0.1250  plane waves:    5132
 k-point 23 :   0.5000 0.2500 0.1250  plane waves:    5141
 k-point 24 :  -0.3750 0.2500 0.1250  plane waves:    5142
 k-point 25 :   0.5000 0.3750 0.1250  plane waves:    5142
 k-point 26 :  -0.3750 0.3750 0.1250  plane waves:    5138
 k-point 27 :  -0.2500 0.3750 0.1250  plane waves:    5148
 k-point 28 :  -0.3750 0.5000 0.1250  plane waves:    5138
 k-point 29 :  -0.2500 0.5000 0.2500  plane waves:    5124

 maximum and minimum number of plane-waves per node :       750      714

 maximum number of plane-waves:      5166
 maximum index in each direction: 
   IXMAX=   12   IYMAX=   12   IZMAX=   12
   IXMIN=  -12   IYMIN=  -12   IZMIN=  -12


 parallel 3D FFT for wavefunctions:
    minimum data exchange during FFTs selected (reduces bandwidth)
 parallel 3D FFT for charge:
    minimum data exchange during FFTs selected (reduces bandwidth)


 total amount of memory used by VASP MPI-rank0    61959. kBytes
=======================================================================

   base      :      30000. kBytes
   nonl-proj :       9280. kBytes
   fftplans  :       4869. kBytes
   grid      :       9037. kBytes
   one-center:         15. kBytes
   wavefun   :       8758. kBytes
 
     INWAV:  cpu time    0.0000: real time    0.0000
 Broyden mixing: mesh for mixing (old mesh)
   NGX = 25   NGY = 25   NGZ = 25
  (NGX  = 96   NGY  = 96   NGZ  = 96)
  gives a total of  15625 points

 initial charge density was supplied:
 charge density of overlapping atoms calculated
 number of electron      42.0000000 magnetization 
 keeping initial charge density in first step


--------------------------------------------------------------------------------------------------------


 Maximum index for augmentation-charges         4046 (set IRDMAX)


--------------------------------------------------------------------------------------------------------


 First call to EWALD:  gamma=   0.308
 Maximum number of real-space cells 3x 3x 3
 Maximum number of reciprocal cells 3x 3x 3

    FEWALD:  cpu time    0.0017: real time    0.0017


--------------------------------------- Iteration      1(   1)  ---------------------------------------


    POTLOK:  cpu time    0.0818: real time    0.0865
    SETDIJ:  cpu time    0.0062: real time    0.0062
     EDDAV:  cpu time    0.4973: real time    0.4977
       DOS:  cpu time    0.0006: real time    0.0006
    --------------------------------------------
      LOOP:  cpu time    0.5859: real time    0.5910

 eigenvalue-minimisations  :  1450
 total energy-change (2. order) : 0.3745480E+03  (-0.1911599E+04)
 number of electron      42.0000000 magnetization 
 augmentation part       42.0000000 magnetization 

 Free energy of the ion-electron system (eV)
  ---------------------------------------------------
  alpha Z        PSCENC =       145.63281582
  Ewald energy   TEWEN  =     -2607.69375360
  -Hartree energ DENC   =     -1035.57759202
  -exchange      EXHF   =         0.00000000
  -V(xc)+E(xc)   XCENC  =       117.04167598
  PAW double counting   =      3110.29076924    -3064.67432099
  entropy T*S    EENTRO =        -0.00154487
  eigenvalues    EBANDS =      -130.35809627
  atomic energy  EATOM  =      3839.88806440
  Solvation  Ediel_sol  =         0.00000000
  ---------------------------------------------------
  free energy    TOTEN  =       374.54801769 eV

  energy without entropy =      374.54956256  energy(sigma->0) =      374.54879013


--------------------------------------------------------------------------------------------------------




--------------------------------------- Iteration      1(   2)  ---------------------------------------


     EDDAV:  cpu time    0.5286: real time    0.5307
       DOS:  cpu time    0.0006: real time    0.0006
    --------------------------------------------
      LOOP:  cpu time    0.5292: real time    0.5313

 eigenvalue-minimisations  :  1753
 total energy-change (2. order) :-0.3484837E+03  (-0.3448744E+03)
 number of electron      42.0000000 magnetization 
 augmentation part       42.0000000 magnetization 

 Free energy of the ion-electron system (eV)
  ---------------------------------------------------
  alpha Z        PSCENC =       145.63281582
  Ewald energy   TEWEN  =     -2607.69375360
  -Hartree energ DENC   =     -1035.57759202
  -exchange      EXHF   =         0.00000000
  -V(xc)+E(xc)   XCENC  =       117.04167598
  PAW double counting   =      3110.29076924    -3064.67432099
  entropy T*S    EENTRO =        -0.00029622
  eigenvalues    EBANDS =      -478.84305586
  atomic energy  EATOM  =      3839.88806440
  Solvation  Ediel_sol  =         0.00000000
  ---------------------------------------------------
  free energy    TOTEN  =        26.06430676 eV

  energy without entropy =       26.06460297  energy(sigma->0) =       26.06445486


--------------------------------------------------------------------------------------------------------




--------------------------------------- Iteration      1(   3)  ---------------------------------------


     EDDAV:  cpu time    0.5753: real time    0.5757
       DOS:  cpu time    0.0003: real time    0.0003
    --------------------------------------------
      LOOP:  cpu time    0.5757: real time    0.5760

 eigenvalue-minimisations  :  1864
 total energy-change (2. order) :-0.3377866E+02  (-0.3372503E+02)
 number of electron      42.0000000 magnetization 
 augmentation part       42.0000000 magnetization 

 Free energy of the ion-electron system (eV)
  ---------------------------------------------------
  alpha Z        PSCENC =       145.63281582
  Ewald energy   TEWEN  =     -2607.69375360
  -Hartree energ DENC   =     -1035.57759202
  -exchange      EXHF   =         0.00000000
  -V(xc)+E(xc)   XCENC  =       117.04167598
  PAW double counting   =      3110.29076924    -3064.67432099
  entropy T*S    EENTRO =        -0.00000000
  eigenvalues    EBANDS =      -512.62200939
  atomic energy  EATOM  =      3839.88806440
  Solvation  Ediel_sol  =         0.00000000
  ---------------------------------------------------
  free energy    TOTEN  =        -7.71435056 eV

  energy without entropy =       -7.71435056  energy(sigma->0) =       -7.71435056


--------------------------------------------------------------------------------------------------------




--------------------------------------- Iteration      1(   4)  ---------------------------------------


     EDDAV:  cpu time    0.6810: real time    0.6821
       DOS:  cpu time    0.0003: real time    0.0003
    --------------------------------------------
      LOOP:  cpu time    0.6813: real time    0.6824

 eigenvalue-minimisations  :  2350
 total energy-change (2. order) :-0.1207142E+01  (-0.1205837E+01)
 number of electron      42.0000000 magnetization 
 augmentation part       42.0000000 magnetization 

 Free energy of the ion-electron system (eV)
  ---------------------------------------------------
  alpha Z        PSCENC =       145.63281582
  Ewald energy   TEWEN  =     -2607.69375360
  -Hartree energ DENC   =     -1035.57759202
  -exchange      EXHF   =         0.00000000
  -V(xc)+E(xc)   XCENC  =       117.04167598
  PAW double counting   =      3110.29076924    -3064.67432099
  entropy T*S    EENTRO =        -0.00000000
  eigenvalues    EBANDS =      -513.82915147
  atomic energy  EATOM  =      3839.88806440
  Solvation  Ediel_sol  =         0.00000000
  ---------------------------------------------------
  free energy    TOTEN  =        -8.92149264 eV

  energy without entropy =       -8.92149264  energy(sigma->0) =       -8.92149264


--------------------------------------------------------------------------------------------------------




--------------------------------------- Iteration      1(   5)  ---------------------------------------


     EDDAV:  cpu time    0.6061: real time    0.6070
       DOS:  cpu time    0.0003: real time    0.0003
    CHARGE:  cpu time    0.0603: real time    0.0603
    MIXING:  cpu time    0.0047: real time    0.0048
    --------------------------------------------
      LOOP:  cpu time    0.6714: real time    0.6724

 eigenvalue-minimisations  :  2123
 total energy-change (2. order) :-0.3972174E-01  (-0.3971583E-01)
 number of electron      41.9999993 magnetization 
 augmentation part        3.4844444 magnetization 

 Broyden mixing:
  rms(total) = 0.40965E+00    rms(broyden)= 0.40965E+00
  rms(prec ) = 0.10871E+01
  weight for this iteration     100.00

 Free energy of the ion-electron system (eV)
  ---------------------------------------------------
  alpha Z        PSCENC =       145.63281582
  Ewald energy   TEWEN  =     -2607.69375360
  -Hartree energ DENC   =     -1035.57759202
  -exchange      EXHF   =         0.00000000
  -V(xc)+E(xc)   XCENC  =       117.04167598
  PAW double counting   =      3110.29076924    -3064.67432099
  entropy T*S    EENTRO =        -0.00000000
  eigenvalues    EBANDS =      -513.86887321
  atomic energy  EATOM  =      3839.88806440
  Solvation  Ediel_sol  =         0.00000000
  ---------------------------------------------------
  free energy    TOTEN  =        -8.96121438 eV

  energy without entropy =       -8.96121438  energy(sigma->0) =       -8.96121438


--------------------------------------------------------------------------------------------------------




--------------------------------------- Iteration      1(   6)  ---------------------------------------


    POTLOK:  cpu time    0.0839: real time    0.0842
    SETDIJ:  cpu time    0.0049: real time    0.0049
     EDDAV:  cpu time    0.5483: real time    0.5485
       DOS:  cpu time    0.0004: real time    0.0004
    CHARGE:  cpu time    0.0591: real time    0.0591
    MIXING:  cpu time    0.0054: real time    0.0054
    --------------------------------------------
      LOOP:  cpu time    0.7019: real time    0.7024

 eigenvalue-minimisations  :  1764
 total energy-change (2. order) : 0.8897943E+00  (-0.2203276E+00)
 number of electron      41.9999993 magnetization 
 augmentation part        3.4830522 magnetization 

 Broyden mixing:
  rms(total) = 0.26911E+00    rms(broyden)= 0.26911E+00
  rms(prec ) = 0.51613E+00
  weight for this iteration     100.00

 eigenvalues of (default mixing * dielectric matrix)
  average eigenvalue GAMMA=   1.7595
  1.7595

 Free energy of the ion-electron system (eV)
  ---------------------------------------------------
  alpha Z        PSCENC =       145.63281582
  Ewald energy   TEWEN  =     -2607.69375360
  -Hartree energ DENC   =     -1040.34122673
  -exchange      EXHF   =         0.00000000
  -V(xc)+E(xc)   XCENC  =       117.02750945
  PAW double counting   =      3189.30269027    -3147.07273347
  entropy T*S    EENTRO =        -0.00000000
  eigenvalues    EBANDS =      -504.81478622
  atomic energy  EATOM  =      3839.88806440
  Solvation  Ediel_sol  =         0.00000000
  ---------------------------------------------------
  free energy    TOTEN  =        -8.07142008 eV

  energy without entropy =       -8.07142008  energy(sigma->0) =       -8.07142008


--------------------------------------------------------------------------------------------------------




--------------------------------------- Iteration      1(   7)  ---------------------------------------


    POTLOK:  cpu time    0.0831: real time    0.0835
    SETDIJ:  cpu time    0.0049: real time    0.0049
     EDDAV:  cpu time    0.5723: real time    0.5724
       DOS:  cpu time    0.0005: real time    0.0005
    CHARGE:  cpu time    0.0572: real time    0.0572
    MIXING:  cpu time    0.0040: real time    0.0040
    --------------------------------------------
      LOOP:  cpu time    0.7220: real time    0.7226

 eigenvalue-minimisations  :  1845
 total energy-change (2. order) : 0.1428678E+00  (-0.1097661E+00)
 number of electron      41.9999993 magnetization 
 augmentation part        3.4768422 magnetization 

 Broyden mixing:
  rms(total) = 0.13928E+00    rms(broyden)= 0.13928E+00
  rms(prec ) = 0.18741E+00
  weight for this iteration     100.00

 eigenvalues of (default mixing * dielectric matrix)
  average eigenvalue GAMMA=   1.9917
  1.9917  1.9917

 Free energy of the ion-electron system (eV)
  ---------------------------------------------------
  alpha Z        PSCENC =       145.63281582
  Ewald energy   TEWEN  =     -2607.69375360
  -Hartree energ DENC   =     -1039.71952957
  -exchange      EXHF   =         0.00000000
  -V(xc)+E(xc)   XCENC  =       116.89689536
  PAW double counting   =      3232.74604618    -3191.40771467
  entropy T*S    EENTRO =        -0.00000157
  eigenvalues    EBANDS =      -504.27137461
  atomic energy  EATOM  =      3839.88806440
  Solvation  Ediel_sol  =         0.00000000
  ---------------------------------------------------
  free energy    TOTEN  =        -7.92855225 eV

  energy without entropy =       -7.92855069  energy(sigma->0) =       -7.92855147


--------------------------------------------------------------------------------------------------------




--------------------------------------- Iteration      1(   8)  ---------------------------------------


    POTLOK:  cpu time    0.0810: real time    0.0814
    SETDIJ:  cpu time    0.0052: real time    0.0052
     EDDAV:  cpu time    0.5472: real time    0.5476
       DOS:  cpu time    0.0004: real time    0.0004
    CHARGE:  cpu time    0.0570: real time    0.0570
    MIXING:  cpu time    0.0040: real time    0.0040
    --------------------------------------------
      LOOP:  cpu time    0.6949: real time    0.6957

 eigenvalue-minimisations  :  1774
 total energy-change (2. order) :-0.1098180E-01  (-0.1440633E-01)
 number of electron      41.9999993 magnetization 
 augmentation part        3.4680306 magnetization 

 Broyden mixing:
  rms(total) = 0.31576E-01    rms(broyden)= 0.31576E-01
  rms(prec ) = 0.73492E-01
  weight for this iteration     100.00

 eigenvalues of (default mixing * dielectric matrix)
  average eigenvalue GAMMA=   1.8128
  2.6018  1.4183  1.4183

 Free energy of the ion-electron system (eV)
  ---------------------------------------------------
  alpha Z        PSCENC =       145.63281582
  Ewald energy   TEWEN  =     -2607.69375360
  -Hartree energ DENC   =     -1037.08411371
  -exchange      EXHF   =         0.00000000
  -V(xc)+E(xc)   XCENC  =       116.83685255
  PAW double counting   =      3229.96616200    -3186.85991934
  entropy T*S    EENTRO =        -0.00000007
  eigenvalues    EBANDS =      -508.62564209
  atomic energy  EATOM  =      3839.88806440
  Solvation  Ediel_sol  =         0.00000000
  ---------------------------------------------------
  free energy    TOTEN  =        -7.93953405 eV

  energy without entropy =       -7.93953398  energy(sigma->0) =       -7.93953401


--------------------------------------------------------------------------------------------------------




--------------------------------------- Iteration      1(   9)  ---------------------------------------


    POTLOK:  cpu time    0.0796: real time    0.0800
    SETDIJ:  cpu time    0.0069: real time    0.0069
     EDDAV:  cpu time    0.5428: real time    0.5430
       DOS:  cpu time    0.0005: real time    0.0005
    CHARGE:  cpu time    0.0571: real time    0.0571
    MIXING:  cpu time    0.0042: real time    0.0042
    --------------------------------------------
      LOOP:  cpu time    0.6913: real time    0.6917

 eigenvalue-minimisations  :  1828
 total energy-change (2. order) : 0.7704384E-03  (-0.4596029E-02)
 number of electron      41.9999993 magnetization 
 augmentation part        3.4667851 magnetization 

 Broyden mixing:
  rms(total) = 0.14704E-01    rms(broyden)= 0.14704E-01
  rms(prec ) = 0.34286E-01
  weight for this iteration     100.00

 eigenvalues of (default mixing * dielectric matrix)
  average eigenvalue GAMMA=   1.7464
  2.7070  1.9693  1.1547  1.1547

 Free energy of the ion-electron system (eV)
  ---------------------------------------------------
  alpha Z        PSCENC =       145.63281582
  Ewald energy   TEWEN  =     -2607.69375360
  -Hartree energ DENC   =     -1038.37390970
  -exchange      EXHF   =         0.00000000
  -V(xc)+E(xc)   XCENC  =       116.88246585
  PAW double counting   =      3244.56143422    -3201.34989404
  entropy T*S    EENTRO =        -0.00000208
  eigenvalues    EBANDS =      -507.48598449
  atomic energy  EATOM  =      3839.88806440
  Solvation  Ediel_sol  =         0.00000000
  ---------------------------------------------------
  free energy    TOTEN  =        -7.93876361 eV

  energy without entropy =       -7.93876153  energy(sigma->0) =       -7.93876257


--------------------------------------------------------------------------------------------------------




--------------------------------------- Iteration      1(  10)  ---------------------------------------


    POTLOK:  cpu time    0.0812: real time    0.0816
    SETDIJ:  cpu time    0.0052: real time    0.0052
     EDDAV:  cpu time    0.5491: real time    0.5495
       DOS:  cpu time    0.0005: real time    0.0005
    CHARGE:  cpu time    0.0591: real time    0.0592
    MIXING:  cpu time    0.0046: real time    0.0046
    --------------------------------------------
      LOOP:  cpu time    0.6997: real time    0.7004

 eigenvalue-minimisations  :  1809
 total energy-change (2. order) : 0.6848688E-03  (-0.6460498E-03)
 number of electron      41.9999993 magnetization 
 augmentation part        3.4653670 magnetization 

 Broyden mixing:
  rms(total) = 0.31244E-02    rms(broyden)= 0.31243E-02
  rms(prec ) = 0.55201E-02
  weight for this iteration     100.00

 eigenvalues of (default mixing * dielectric matrix)
  average eigenvalue GAMMA=   1.7904
  2.8403  2.3696  1.3996  1.3996  0.9429

 Free energy of the ion-electron system (eV)
  ---------------------------------------------------
  alpha Z        PSCENC =       145.63281582
  Ewald energy   TEWEN  =     -2607.69375360
  -Hartree energ DENC   =     -1038.44296091
  -exchange      EXHF   =         0.00000000
  -V(xc)+E(xc)   XCENC  =       116.89634653
  PAW double counting   =      3242.30826459    -3198.90497525
  entropy T*S    EENTRO =        -0.00000053
  eigenvalues    EBANDS =      -507.62187978
  atomic energy  EATOM  =      3839.88806440
  Solvation  Ediel_sol  =         0.00000000
  ---------------------------------------------------
  free energy    TOTEN  =        -7.93807874 eV

  energy without entropy =       -7.93807821  energy(sigma->0) =       -7.93807848


--------------------------------------------------------------------------------------------------------




--------------------------------------- Iteration      1(  11)  ---------------------------------------


    POTLOK:  cpu time    0.0825: real time    0.0837
    SETDIJ:  cpu time    0.0051: real time    0.0051
     EDDAV:  cpu time    0.6576: real time    0.6576
       DOS:  cpu time    0.0005: real time    0.0005
    CHARGE:  cpu time    0.0569: real time    0.0569
    MIXING:  cpu time    0.0043: real time    0.0043
    --------------------------------------------
      LOOP:  cpu time    0.8069: real time    0.8081

 eigenvalue-minimisations  :  2202
 total energy-change (2. order) :-0.9654649E-04  (-0.3907255E-04)
 number of electron      41.9999993 magnetization 
 augmentation part        3.4662045 magnetization 

 Broyden mixing:
  rms(total) = 0.24948E-02    rms(broyden)= 0.24947E-02
  rms(prec ) = 0.62586E-02
  weight for this iteration     100.00

 eigenvalues of (default mixing * dielectric matrix)
  average eigenvalue GAMMA=   1.7965
  3.2736  2.2750  2.1442  1.1367  1.1367  0.8126

 Free energy of the ion-electron system (eV)
  ---------------------------------------------------
  alpha Z        PSCENC =       145.63281582
  Ewald energy   TEWEN  =     -2607.69375360
  -Hartree energ DENC   =     -1038.37602037
  -exchange      EXHF   =         0.00000000
  -V(xc)+E(xc)   XCENC  =       116.89655034
  PAW double counting   =      3243.74906799    -3200.30782773
  entropy T*S    EENTRO =        -0.00000044
  eigenvalues    EBANDS =      -507.72707170
  atomic energy  EATOM  =      3839.88806440
  Solvation  Ediel_sol  =         0.00000000
  ---------------------------------------------------
  free energy    TOTEN  =        -7.93817529 eV

  energy without entropy =       -7.93817485  energy(sigma->0) =       -7.93817507


--------------------------------------------------------------------------------------------------------




--------------------------------------- Iteration      1(  12)  ---------------------------------------


    POTLOK:  cpu time    0.0813: real time    0.0817
    SETDIJ:  cpu time    0.0052: real time    0.0052
     EDDAV:  cpu time    0.4986: real time    0.4992
       DOS:  cpu time    0.0005: real time    0.0005
    CHARGE:  cpu time    0.0570: real time    0.0570
    MIXING:  cpu time    0.0044: real time    0.0044
    --------------------------------------------
      LOOP:  cpu time    0.6469: real time    0.6479

 eigenvalue-minimisations  :  1550
 total energy-change (2. order) : 0.1733679E-04  (-0.3010084E-04)
 number of electron      41.9999993 magnetization 
 augmentation part        3.4663343 magnetization 

 Broyden mixing:
  rms(total) = 0.56633E-03    rms(broyden)= 0.56633E-03
  rms(prec ) = 0.14656E-02
  weight for this iteration     100.00

 eigenvalues of (default mixing * dielectric matrix)
  average eigenvalue GAMMA=   1.6978
  3.1133  2.5798  1.7000  1.4565  0.9558  1.0394  1.0394

 Free energy of the ion-electron system (eV)
  ---------------------------------------------------
  alpha Z        PSCENC =       145.63281582
  Ewald energy   TEWEN  =     -2607.69375360
  -Hartree energ DENC   =     -1038.38978228
  -exchange      EXHF   =         0.00000000
  -V(xc)+E(xc)   XCENC  =       116.89633404
  PAW double counting   =      3245.38089525    -3201.98801321
  entropy T*S    EENTRO =        -0.00000057
  eigenvalues    EBANDS =      -507.66471780
  atomic energy  EATOM  =      3839.88806440
  Solvation  Ediel_sol  =         0.00000000
  ---------------------------------------------------
  free energy    TOTEN  =        -7.93815795 eV

  energy without entropy =       -7.93815738  energy(sigma->0) =       -7.93815767


--------------------------------------------------------------------------------------------------------




--------------------------------------- Iteration      1(  13)  ---------------------------------------


    POTLOK:  cpu time    0.0814: real time    0.0817
    SETDIJ:  cpu time    0.0051: real time    0.0051
     EDDAV:  cpu time    0.4366: real time    0.4368
       DOS:  cpu time    0.0005: real time    0.0005
    --------------------------------------------
      LOOP:  cpu time    0.5235: real time    0.5241

 eigenvalue-minimisations  :  1372
 total energy-change (2. order) : 0.1302441E-05  (-0.2088592E-05)
 number of electron      41.9999993 magnetization 
 augmentation part        3.4663343 magnetization 

 Free energy of the ion-electron system (eV)
  ---------------------------------------------------
  alpha Z        PSCENC =       145.63281582
  Ewald energy   TEWEN  =     -2607.69375360
  -Hartree energ DENC   =     -1038.39114988
  -exchange      EXHF   =         0.00000000
  -V(xc)+E(xc)   XCENC  =       116.89689919
  PAW double counting   =      3244.95474921    -3201.55557119
  entropy T*S    EENTRO =        -0.00000053
  eigenvalues    EBANDS =      -507.67021007
  atomic energy  EATOM  =      3839.88806440
  Solvation  Ediel_sol  =         0.00000000
  ---------------------------------------------------
  free energy    TOTEN  =        -7.93815665 eV

  energy without entropy =       -7.93815612  energy(sigma->0) =       -7.93815638


--------------------------------------------------------------------------------------------------------




 average (electrostatic) potential at core
  the test charge radii are     1.0856  1.1312  1.1097
  (the norm of the test charge is              1.0000)
       1-107.1568       2 -50.9846       3 -38.0990       4 -38.0990
 
 
 
 E-fermi :   2.0516     XC(G=0):  -7.6230     alpha+bet : -7.3478


 k-point     1 :       0.0000    0.0000    0.0000
  band No.  band energies     occupation 
      1     -25.8003      2.00000
      2     -25.7830      2.00000
      3     -21.2425      2.00000
      4     -18.9465      2.00000
      5     -18.9465      2.00000
      6     -18.9465      2.00000
      7     -18.9413      2.00000
      8     -18.9413      2.00000
      9      -9.9838      2.00000
     10      -9.9838      2.00000
     11      -9.9838      2.00000
     12      -9.8990      2.00000
     13      -9.8990      2.00000
     14      -9.8990      2.00000
     15      -8.0615      2.00000
     16      -8.0615      2.00000
     17      -8.0615      2.00000
     18      -6.9303      2.00000
     19       1.8310      2.00000
     20       1.8311      2.00000
     21       1.8311      2.00000
     22       2.1681      0.00099
     23       3.7659      0.00000
     24       3.7659      0.00000
     25       4.7577      0.00000

 k-point     2 :       0.1250    0.0000    0.0000
  band No.  band energies     occupation 
      1     -25.7996      2.00000
      2     -25.7836      2.00000
      3     -21.2428      2.00000
      4     -18.9465      2.00000
      5     -18.9465      2.00000
      6     -18.9465      2.00000
      7     -18.9413      2.00000
      8     -18.9413      2.00000
      9      -9.9897      2.00000
     10      -9.9825      2.00000
     11      -9.9825      2.00000
     12      -9.9030      2.00000
     13      -9.9030      2.00000
     14      -9.8976      2.00000
     15      -8.0721      2.00000
     16      -8.0580      2.00000
     17      -8.0580      2.00000
     18      -6.9044      2.00000
     19       1.4182      2.00000
     20       1.7838      2.00000
     21       1.7838      2.00000
     22       2.7669      0.00000
     23       3.9479      0.00000
     24       3.9479      0.00000
     25       4.6108      0.00000

 k-point     3 :       0.2500    0.0000    0.0000
  band No.  band energies     occupation 
      1     -25.7976      2.00000
      2     -25.7854      2.00000
      3     -21.2434      2.00000
      4     -18.9465      2.00000
      5     -18.9465      2.00000
      6     -18.9464      2.00000
      7     -18.9413      2.00000
      8     -18.9413      2.00000
      9      -9.9956      2.00000
     10      -9.9783      2.00000
     11      -9.9783      2.00000
     12      -9.9137      2.00000
     13      -9.9137      2.00000
     14      -9.9045      2.00000
     15      -8.0871      2.00000
     16      -8.0497      2.00000
     17      -8.0497      2.00000
     18      -6.8526      2.00000
     19       1.0853      2.00000
     20       1.6930      2.00000
     21       1.6930      2.00000
     22       3.5280      0.00000
     23       4.4109      0.00000
     24       4.4109      0.00000
     25       4.4494      0.00000

 k-point     4 :       0.3750    0.0000    0.0000
  band No.  band energies     occupation 
      1     -25.7946      2.00000
      2     -25.7881      2.00000
      3     -21.2440      2.00000
      4     -18.9465      2.00000
      5     -18.9465      2.00000
      6     -18.9462      2.00000
      7     -18.9413      2.00000
      8     -18.9413      2.00000
      9      -9.9937      2.00000
     10      -9.9714      2.00000
     11      -9.9714      2.00000
     12      -9.9269      2.00000
     13      -9.9269      2.00000
     14      -9.9213      2.00000
     15      -8.0909      2.00000
     16      -8.0414      2.00000
     17      -8.0414      2.00000
     18      -6.8126      2.00000
     19       0.9131      2.00000
     20       1.6242      2.00000
     21       1.6242      2.00000
     22       3.9696      0.00000
     23       4.8008      0.00000
     24       4.8008      0.00000
     25       4.8131      0.00000

 k-point     5 :       0.5000    0.0000    0.0000
  band No.  band energies     occupation 
      1     -25.7913      2.00000
      2     -25.7913      2.00000
      3     -21.2442      2.00000
      4     -18.9465      2.00000
      5     -18.9465      2.00000
      6     -18.9461      2.00000
      7     -18.9413      2.00000
      8     -18.9413      2.00000
      9      -9.9907      2.00000
     10      -9.9667      2.00000
     11      -9.9667      2.00000
     12      -9.9343      2.00000
     13      -9.9343      2.00000
     14      -9.9308      2.00000
     15      -8.0901      2.00000
     16      -8.0379      2.00000
     17      -8.0379      2.00000
     18      -6.7987      2.00000
     19       0.8581      2.00000
     20       1.6003      2.00000
     21       1.6003      2.00000
     22       4.2145      0.00000
     23       4.7901      0.00000
     24       4.8510      0.00000
     25       4.8510      0.00000

 k-point     6 :       0.1250    0.1250    0.0000
  band No.  band energies     occupation 
      1     -25.7994      2.00000
      2     -25.7838      2.00000
      3     -21.2429      2.00000
      4     -18.9465      2.00000
      5     -18.9465      2.00000
      6     -18.9465      2.00000
      7     -18.9413      2.00000
      8     -18.9413      2.00000
      9      -9.9964      2.00000
     10      -9.9964      2.00000
     11      -9.9639      2.00000
     12      -9.9207      2.00000
     13      -9.8919      2.00000
     14      -9.8919      2.00000
     15      -8.0802      2.00000
     16      -8.0545      2.00000
     17      -8.0545      2.00000
     18      -6.8971      2.00000
     19       1.2920      2.00000
     20       1.8450      2.00000
     21       1.8450      2.00000
     22       2.7916      0.00000
     23       3.8670      0.00000
     24       4.1592      0.00000
     25       4.4523      0.00000

 k-point     7 :       0.2500    0.1250    0.0000
  band No.  band energies     occupation 
      1     -25.7979      2.00000
      2     -25.7851      2.00000
      3     -21.2434      2.00000
      4     -18.9465      2.00000
      5     -18.9465      2.00000
      6     -18.9464      2.00000
      7     -18.9413      2.00000
      8     -18.9413      2.00000
      9     -10.0070      2.00000
     10     -10.0044      2.00000
     11      -9.9474      2.00000
     12      -9.9414      2.00000
     13      -9.8903      2.00000
     14      -9.8899      2.00000
     15      -8.0931      2.00000
     16      -8.0485      2.00000
     17      -8.0462      2.00000
     18      -6.8582      2.00000
     19       1.0658      2.00000
     20       1.7549      2.00000
     21       1.8104      2.00000
     22       3.3447      0.00000
     23       4.1351      0.00000
     24       4.2108      0.00000
     25       4.6152      0.00000

 k-point     8 :       0.3750    0.1250    0.0000
  band No.  band energies     occupation 
      1     -25.7954      2.00000
      2     -25.7873      2.00000
      3     -21.2439      2.00000
      4     -18.9465      2.00000
      5     -18.9465      2.00000
      6     -18.9463      2.00000
      7     -18.9413      2.00000
      8     -18.9413      2.00000
      9     -10.0124      2.00000
     10     -10.0036      2.00000
     11      -9.9672      2.00000
     12      -9.9253      2.00000
     13      -9.9012      2.00000
     14      -9.8974      2.00000
     15      -8.0928      2.00000
     16      -8.0441      2.00000
     17      -8.0380      2.00000
     18      -6.8210      2.00000
     19       0.9621      2.00000
     20       1.6168      2.00000
     21       1.7246      2.00000
     22       3.8371      0.00000
     23       4.3961      0.00000
     24       4.6060      0.00000
     25       4.8381      0.00000

 k-point     9 :       0.5000    0.1250    0.0000
  band No.  band energies     occupation 
      1     -25.7924      2.00000
      2     -25.7902      2.00000
      3     -21.2443      2.00000
      4     -18.9465      2.00000
      5     -18.9464      2.00000
      6     -18.9462      2.00000
      7     -18.9413      2.00000
      8     -18.9413      2.00000
      9     -10.0185      2.00000
     10      -9.9929      2.00000
     11      -9.9745      2.00000
     12      -9.9234      2.00000
     13      -9.9106      2.00000
     14      -9.9044      2.00000
     15      -8.0850      2.00000
     16      -8.0426      2.00000
     17      -8.0347      2.00000
     18      -6.8030      2.00000
     19       0.9355      2.00000
     20       1.5527      2.00000
     21       1.6445      2.00000
     22       4.1092      0.00000
     23       4.6422      0.00000
     24       4.8275      0.00000
     25       4.8981      0.00000

 k-point    10 :      -0.3750    0.1250    0.0000
  band No.  band energies     occupation 
      1     -25.7933      2.00000
      2     -25.7893      2.00000
      3     -21.2442      2.00000
      4     -18.9465      2.00000
      5     -18.9464      2.00000
      6     -18.9462      2.00000
      7     -18.9413      2.00000
      8     -18.9413      2.00000
      9     -10.0229      2.00000
     10      -9.9736      2.00000
     11      -9.9704      2.00000
     12      -9.9379      2.00000
     13      -9.9272      2.00000
     14      -9.8890      2.00000
     15      -8.0841      2.00000
     16      -8.0426      2.00000
     17      -8.0382      2.00000
     18      -6.8065      2.00000
     19       0.9460      2.00000
     20       1.5996      2.00000
     21       1.6025      2.00000
     22       4.0787      0.00000
     23       4.5720      0.00000
     24       4.7934      0.00000
     25       4.8722      0.00000

 k-point    11 :      -0.2500    0.1250    0.0000
  band No.  band energies     occupation 
      1     -25.7962      2.00000
      2     -25.7866      2.00000
      3     -21.2437      2.00000
      4     -18.9465      2.00000
      5     -18.9464      2.00000
      6     -18.9463      2.00000
      7     -18.9413      2.00000
      8     -18.9413      2.00000
      9     -10.0186      2.00000
     10      -9.9774      2.00000
     11      -9.9535      2.00000
     12      -9.9409      2.00000
     13      -9.9275      2.00000
     14      -9.8812      2.00000
     15      -8.0884      2.00000
     16      -8.0465      2.00000
     17      -8.0445      2.00000
     18      -6.8313      2.00000
     19       1.0069      2.00000
     20       1.6087      2.00000
     21       1.7335      2.00000
     22       3.7419      0.00000
     23       4.3533      0.00000
     24       4.5370      0.00000
     25       4.7432      0.00000

 k-point    12 :      -0.1250    0.1250    0.0000
  band No.  band energies     occupation 
      1     -25.7985      2.00000
      2     -25.7846      2.00000
      3     -21.2431      2.00000
      4     -18.9465      2.00000
      5     -18.9465      2.00000
      6     -18.9464      2.00000
      7     -18.9413      2.00000
      8     -18.9413      2.00000
      9     -10.0052      2.00000
     10      -9.9842      2.00000
     11      -9.9657      2.00000
     12      -9.9223      2.00000
     13      -9.9099      2.00000
     14      -9.8858      2.00000
     15      -8.0837      2.00000
     16      -8.0547      2.00000
     17      -8.0504      2.00000
     18      -6.8723      2.00000
     19       1.1741      2.00000
     20       1.6793      2.00000
     21       1.8320      2.00000
     22       3.1969      0.00000
     23       4.1287      0.00000
     24       4.3384      0.00000
     25       4.3977      0.00000

 k-point    13 :       0.2500    0.2500    0.0000
  band No.  band energies     occupation 
      1     -25.7971      2.00000
      2     -25.7857      2.00000
      3     -21.2437      2.00000
      4     -18.9465      2.00000
      5     -18.9465      2.00000
      6     -18.9463      2.00000
      7     -18.9413      2.00000
      8     -18.9413      2.00000
      9     -10.0238      2.00000
     10     -10.0238      2.00000
     11      -9.9731      2.00000
     12      -9.9150      2.00000
     13      -9.8771      2.00000
     14      -9.8771      2.00000
     15      -8.1085      2.00000
     16      -8.0381      2.00000
     17      -8.0381      2.00000
     18      -6.8423      2.00000
     19       0.9547      2.00000
     20       1.8762      2.00000
     21       1.8762      2.00000
     22       3.4497      0.00000
     23       3.8499      0.00000
     24       4.1688      0.00000
     25       4.9112      0.00000

 k-point    14 :       0.3750    0.2500    0.0000
  band No.  band energies     occupation 
      1     -25.7955      2.00000
      2     -25.7872      2.00000
      3     -21.2442      2.00000
      4     -18.9464      2.00000
      5     -18.9464      2.00000
      6     -18.9462      2.00000
      7     -18.9413      2.00000
      8     -18.9413      2.00000
      9     -10.0376      2.00000
     10     -10.0321      2.00000
     11      -9.9954      2.00000
     12      -9.8909      2.00000
     13      -9.8779      2.00000
     14      -9.8750      2.00000
     15      -8.1082      2.00000
     16      -8.0331      2.00000
     17      -8.0301      2.00000
     18      -6.8224      2.00000
     19       0.9542      2.00000
     20       1.7722      2.00000
     21       1.8448      2.00000
     22       3.6739      0.00000
     23       3.9208      0.00000
     24       4.5008      0.00000
     25       4.8002      0.00000

 k-point    15 :       0.5000    0.2500    0.0000
  band No.  band energies     occupation 
      1     -25.7932      2.00000
      2     -25.7893      2.00000
      3     -21.2445      2.00000
      4     -18.9464      2.00000
      5     -18.9464      2.00000
      6     -18.9462      2.00000
      7     -18.9413      2.00000
      8     -18.9413      2.00000
      9     -10.0547      2.00000
     10     -10.0265      2.00000
     11      -9.9925      2.00000
     12      -9.8980      2.00000
     13      -9.8830      2.00000
     14      -9.8712      2.00000
     15      -8.0907      2.00000
     16      -8.0379      2.00000
     17      -8.0269      2.00000
     18      -6.8109      2.00000
     19       1.0621      2.00000
     20       1.5512      2.00000
     21       1.7538      2.00000
     22       3.8165      0.00000
     23       4.3238      0.00000
     24       4.6952      0.00000
     25       4.8280      0.00000

 k-point    16 :      -0.3750    0.2500    0.0000
  band No.  band energies     occupation 
      1     -25.7917      2.00000
      2     -25.7908      2.00000
      3     -21.2446      2.00000
      4     -18.9464      2.00000
      5     -18.9463      2.00000
      6     -18.9462      2.00000
      7     -18.9413      2.00000
      8     -18.9413      2.00000
      9     -10.0598      2.00000
     10     -10.0075      2.00000
     11      -9.9745      2.00000
     12      -9.9276      2.00000
     13      -9.8993      2.00000
     14      -9.8612      2.00000
     15      -8.0699      2.00000
     16      -8.0516      2.00000
     17      -8.0304      2.00000
     18      -6.8081      2.00000
     19       1.1349      2.00000
     20       1.4477      2.00000
     21       1.6576      2.00000
     22       4.1414      0.00000
     23       4.2079      0.00000
     24       4.8123      0.00000
     25       4.9018      0.00000

 k-point    17 :      -0.2500    0.2500    0.0000
  band No.  band energies     occupation 
      1     -25.7942      2.00000
      2     -25.7884      2.00000
      3     -21.2442      2.00000
      4     -18.9465      2.00000
      5     -18.9464      2.00000
      6     -18.9463      2.00000
      7     -18.9413      2.00000
      8     -18.9413      2.00000
      9     -10.0455      2.00000
     10      -9.9788      2.00000
[...]
     11     -10.1551      2.00000
     12     -10.0164      2.00000
     13     -10.0118      2.00000
     14      -9.9993      2.00000
     15      -8.2441      2.00000
     16      -8.1690      2.00000
     17      -8.1658      2.00000
     18      -6.9415      2.00000
     19       0.9740      2.00000
     20       1.6369      2.00000
     21       1.7447      1.99999
     22       3.2793      0.00000
     23       3.7046      0.00000
     24       4.5169      0.00000
     25       4.8495      0.00000

 k-point    20 :      -0.3750    0.3750    0.0000
  band No.  band energies     occupation 
      1     -25.9390      2.00000
      2     -25.9370      2.00000
      3     -21.3862      2.00000
      4     -19.0871      2.00000
      5     -19.0870      2.00000
      6     -19.0869      2.00000
      7     -19.0823      2.00000
      8     -19.0823      2.00000
      9     -10.2020      2.00000
     10     -10.1655      2.00000
     11     -10.1337      2.00000
     12     -10.0390      2.00000
     13     -10.0232      2.00000
     14      -9.9973      2.00000
     15      -8.2256      2.00000
     16      -8.1808      2.00000
     17      -8.1686      2.00000
     18      -6.9377      2.00000
     19       1.1189      2.00000
     20       1.3404      2.00000
     21       1.6512      2.00000
     22       3.5991      0.00000
     23       3.8569      0.00000
     24       4.7459      0.00000
     25       4.7880      0.00000

 k-point    21 :       0.5000    0.5000    0.0000
  band No.  band energies     occupation 
      1     -25.9405      2.00000
      2     -25.9356      2.00000
      3     -21.3863      2.00000
      4     -19.0871      2.00000
      5     -19.0871      2.00000
      6     -19.0868      2.00000
      7     -19.0823      2.00000
      8     -19.0823      2.00000
      9     -10.1869      2.00000
     10     -10.1869      2.00000
     11     -10.1771      2.00000
     12     -10.0062      2.00000
     13     -10.0062      2.00000
     14      -9.9933      2.00000
     15      -8.2509      2.00000
     16      -8.1631      2.00000
     17      -8.1631      2.00000
     18      -6.9434      2.00000
     19       0.9712      2.00000
     20       1.7880      1.99817
     21       1.7880      1.99816
     22       3.0541      0.00000
     23       3.5434      0.00000
     24       4.5188      0.00000
     25       5.1134      0.00000

 k-point    22 :       0.3750    0.2500    0.1250
  band No.  band energies     occupation 
      1     -25.9425      2.00000
      2     -25.9339      2.00000
      3     -21.3854      2.00000
      4     -19.0871      2.00000
      5     -19.0871      2.00000
      6     -19.0870      2.00000
      7     -19.0823      2.00000
      8     -19.0823      2.00000
      9     -10.1612      2.00000
     10     -10.1353      2.00000
     11     -10.1068      2.00000
     12     -10.0627      2.00000
     13     -10.0472      2.00000
     14     -10.0188      2.00000
     15      -8.2335      2.00000
     16      -8.1848      2.00000
     17      -8.1840      2.00000
     18      -6.9557      2.00000
     19       0.8778      2.00000
     20       1.5885      2.00000
     21       1.6701      2.00000
     22       3.5326      0.00000
     23       3.8891      0.00000
     24       4.2945      0.00000
     25       4.7328      0.00000

 k-point    23 :       0.5000    0.2500    0.1250
  band No.  band energies     occupation 
      1     -25.9404      2.00000
      2     -25.9358      2.00000
      3     -21.3858      2.00000
      4     -19.0871      2.00000
      5     -19.0871      2.00000
      6     -19.0869      2.00000
      7     -19.0823      2.00000
      8     -19.0823      2.00000
      9     -10.1771      2.00000
     10     -10.1287      2.00000
     11     -10.1181      2.00000
     12     -10.0680      2.00000
     13     -10.0422      2.00000
     14     -10.0160      2.00000
     15      -8.2240      2.00000
     16      -8.1878      2.00000
     17      -8.1773      2.00000
     18      -6.9381      2.00000
     19       0.9119      2.00000
     20       1.4769      2.00000
     21       1.5694      2.00000
     22       3.8144      0.00000
     23       4.1610      0.00000
     24       4.3960      0.00000
     25       4.7976      0.00000

 k-point    24 :      -0.3750    0.2500    0.1250
  band No.  band energies     occupation 
      1     -25.9381      2.00000
      2     -25.9381      2.00000
      3     -21.3860      2.00000
      4     -19.0871      2.00000
      5     -19.0870      2.00000
      6     -19.0869      2.00000
      7     -19.0823      2.00000
      8     -19.0823      2.00000
      9     -10.1835      2.00000
     10     -10.1337      2.00000
     11     -10.1048      2.00000
     12     -10.0851      2.00000
     13     -10.0280      2.00000
     14     -10.0225      2.00000
     15      -8.2147      2.00000
     16      -8.1932      2.00000
     17      -8.1744      2.00000
     18      -6.9323      2.00000
     19       0.9598      2.00000
     20       1.3791      2.00000
     21       1.5491      2.00000
     22       4.0234      0.00000
     23       4.1015      0.00000
     24       4.6141      0.00000
     25       4.7736      0.00000

 k-point    25 :       0.5000    0.3750    0.1250
  band No.  band energies     occupation 
      1     -25.9406      2.00000
      2     -25.9356      2.00000
      3     -21.3860      2.00000
      4     -19.0871      2.00000
      5     -19.0870      2.00000
      6     -19.0869      2.00000
      7     -19.0823      2.00000
      8     -19.0823      2.00000
      9     -10.1931      2.00000
     10     -10.1542      2.00000
     11     -10.1431      2.00000
     12     -10.0381      2.00000
     13     -10.0156      2.00000
     14     -10.0081      2.00000
     15      -8.2377      2.00000
     16      -8.1775      2.00000
     17      -8.1695      2.00000
     18      -6.9407      2.00000
     19       0.9338      2.00000
     20       1.6077      2.00000
     21       1.6442      2.00000
     22       3.5521      0.00000
     23       3.8468      0.00000
     24       4.4439      0.00000
     25       4.6922      0.00000

 k-point    26 :      -0.3750    0.3750    0.1250
  band No.  band energies     occupation 
      1     -25.9390      2.00000
      2     -25.9371      2.00000
      3     -21.3862      2.00000
      4     -19.0871      2.00000
      5     -19.0870      2.00000
      6     -19.0869      2.00000
      7     -19.0823      2.00000
      8     -19.0823      2.00000
      9     -10.2088      2.00000
     10     -10.1468      2.00000
     11     -10.1274      2.00000
     12     -10.0645      2.00000
     13     -10.0097      2.00000
     14     -10.0030      2.00000
     15      -8.2203      2.00000
     16      -8.1886      2.00000
     17      -8.1671      2.00000
     18      -6.9371      2.00000
     19       1.0967      2.00000
     20       1.3694      2.00000
     21       1.5950      2.00000
     22       3.7547      0.00000
     23       3.9253      0.00000
     24       4.5063      0.00000
     25       4.6987      0.00000

 k-point    27 :      -0.2500    0.3750    0.1250
  band No.  band energies     occupation 
      1     -25.9388      2.00000
      2     -25.9373      2.00000
      3     -21.3861      2.00000
      4     -19.0871      2.00000
      5     -19.0870      2.00000
      6     -19.0869      2.00000
      7     -19.0823      2.00000
      8     -19.0823      2.00000
      9     -10.2030      2.00000
     10     -10.1387      2.00000
     11     -10.0977      2.00000
     12     -10.0953      2.00000
     13     -10.0219      2.00000
     14     -10.0027      2.00000
     15      -8.2069      2.00000
     16      -8.2005      2.00000
     17      -8.1706      2.00000
     18      -6.9358      2.00000
     19       1.0938      2.00000
     20       1.3244      2.00000
     21       1.5523      2.00000
     22       3.9035      0.00000
     23       4.1730      0.00000
     24       4.2475      0.00000
     25       4.8254      0.00000

 k-point    28 :      -0.3750    0.5000    0.1250
  band No.  band energies     occupation 
      1     -25.9398      2.00000
      2     -25.9363      2.00000
      3     -21.3863      2.00000
      4     -19.0871      2.00000
      5     -19.0870      2.00000
      6     -19.0869      2.00000
      7     -19.0823      2.00000
      8     -19.0823      2.00000
      9     -10.2101      2.00000
     10     -10.1618      2.00000
     11     -10.1539      2.00000
     12     -10.0342      2.00000
     13     -10.0044      2.00000
     14      -9.9951      2.00000
     15      -8.2367      2.00000
     16      -8.1747      2.00000
     17      -8.1635      2.00000
     18      -6.9405      2.00000
     19       1.0456      2.00000
     20       1.5764      2.00000
     21       1.6555      2.00000
     22       3.4291      0.00000
     23       3.6609      0.00000
     24       4.5920      0.00000
     25       4.8394      0.00000

 k-point    29 :      -0.2500    0.5000    0.2500
  band No.  band energies     occupation 
      1     -25.9380      2.00000
      2     -25.9380      2.00000
      3     -21.3862      2.00000
      4     -19.0870      2.00000
      5     -19.0869      2.00000
      6     -19.0869      2.00000
      7     -19.0823      2.00000
      8     -19.0823      2.00000
      9     -10.2215      2.00000
     10     -10.1426      2.00000
     11     -10.0995      2.00000
     12     -10.0995      2.00000
     13     -10.0009      2.00000
     14      -9.9986      2.00000
     15      -8.2044      2.00000
     16      -8.2044      2.00000
     17      -8.1639      2.00000
     18      -6.9376      2.00000
     19       1.2604      2.00000
     20       1.2605      2.00000
     21       1.5430      2.00000
     22       3.7479      0.00000
     23       4.1811      0.00000
     24       4.1811      0.00000
     25       4.6225      0.00000


--------------------------------------------------------------------------------------------------------


 soft charge-density along one line, spin component           1
         0         1         2         3         4         5         6         7         8         9
 total charge-density along one line
 
 pseudopotential strength for first ion, spin component:           1
-19.449  -0.000   0.000  -0.000  -0.000   5.069   0.000  -0.000
 -0.000 -19.449  -0.000  -0.000   0.000   0.000   5.069   0.000
  0.000  -0.000 -19.448  -0.000   0.000  -0.000   0.000   5.068
 -0.000  -0.000  -0.000 -19.449  -0.000   0.000   0.000   0.000
 -0.000   0.000   0.000  -0.000 -19.448   0.000  -0.000  -0.000
  5.069   0.000  -0.000   0.000   0.000   5.262  -0.000   0.000
  0.000   5.069   0.000   0.000  -0.000  -0.000   5.262  -0.000
 -0.000   0.000   5.068   0.000  -0.000   0.000  -0.000   5.262
  0.000   0.000   0.000   5.069   0.000  -0.000  -0.000  -0.000
  0.000  -0.000  -0.000   0.000   5.068   0.000   0.000   0.000
  0.000   0.000  -0.000   0.000  -0.000   0.000   0.000  -0.000
  0.000   0.000  -0.000   0.000   0.000  -0.000  -0.000   0.000
  0.000   0.000  -0.000   0.000  -0.000   0.000   0.000  -0.000
  0.000   0.000   0.000   0.000   0.000   0.000   0.000   0.000
  0.000   0.000  -0.000   0.000   0.000   0.000   0.000  -0.000
  0.000   0.000  -0.000   0.000  -0.000   0.000   0.000  -0.000
  0.000   0.000   0.000   0.000   0.000   0.000   0.000   0.000
  0.000   0.000  -0.000   0.000   0.000   0.000   0.000  -0.000
 total augmentation occupancy for first ion, spin component:           1
  1.999  -0.000   0.000  -0.000   0.000   0.002  -0.000   0.000   0.000   0.000   0.000  -0.000   0.000  -0.000  -0.000  -0.000
 -0.000   1.999  -0.000   0.000   0.000   0.000   0.002  -0.000   0.000   0.000  -0.000  -0.000  -0.000   0.000   0.000  -0.000
  0.000  -0.000   1.998  -0.000   0.000   0.000  -0.000   0.002  -0.000   0.000   0.000   0.000   0.000   0.000  -0.000   0.000
 -0.000   0.000  -0.000   1.999  -0.000   0.000   0.000  -0.000   0.002   0.000   0.000   0.000  -0.000   0.000  -0.000  -0.000
  0.000   0.000   0.000  -0.000   1.998  -0.000   0.000   0.000   0.000   0.002   0.000   0.000  -0.000   0.000  -0.000   0.000
  0.002   0.000   0.000  -0.000   0.000   0.000  -0.000  -0.000   0.000  -0.000   0.000   0.000   0.000   0.000   0.000   0.000
 -0.000   0.002  -0.000   0.000   0.000  -0.000   0.000   0.000   0.000   0.000   0.000   0.000  -0.000  -0.000   0.000   0.000
  0.000  -0.000   0.002  -0.000   0.000   0.000  -0.000   0.000   0.000   0.000   0.000  -0.000  -0.000  -0.000   0.000   0.000
 -0.000   0.000  -0.000   0.002  -0.000  -0.000   0.000   0.000   0.000   0.000  -0.000   0.000   0.000  -0.000   0.000  -0.000
 -0.000   0.000   0.000  -0.000   0.002   0.000   0.000   0.000  -0.000   0.000   0.000   0.000  -0.000  -0.000   0.000  -0.000
 -0.000  -0.000   0.000   0.000   0.000   0.000   0.000   0.000  -0.000  -0.000   1.928   0.021   0.000  -0.000   0.000   0.000
  0.000   0.000   0.000   0.000   0.000   0.000  -0.000  -0.000   0.000   0.000   0.021   0.001   0.000   0.000   0.000  -0.000
  0.000   0.000   0.000   0.000  -0.000  -0.000   0.000   0.000  -0.000  -0.000   0.000   0.000   1.385  -0.000  -0.000  -0.062
  0.000  -0.000   0.000  -0.000   0.000   0.000   0.000  -0.000   0.000   0.000   0.000   0.000  -0.000   1.385   0.000   0.000
  0.000  -0.000   0.000  -0.000   0.000  -0.000   0.000  -0.000  -0.000   0.000   0.000  -0.000  -0.000   0.000   1.385   0.000
  0.000   0.000   0.000   0.000   0.000  -0.000   0.000   0.000  -0.000   0.000   0.000  -0.000  -0.062  -0.000   0.000   0.003
  0.000   0.000  -0.000   0.000   0.000   0.000   0.000  -0.000   0.000  -0.000   0.000  -0.000   0.000  -0.062   0.000   0.000
  0.000   0.000  -0.000   0.000   0.000   0.000   0.000   0.000  -0.000  -0.000  -0.000  -0.000   0.000   0.000  -0.062   0.000


------------------------ aborting loop because EDIFF is reached ----------------------------------------


    CHARGE:  cpu time    0.0573: real time    0.0573
    FORLOC:  cpu time    0.0080: real time    0.0080
    FORNL :  cpu time    0.0815: real time    0.0815
    STRESS:  cpu time    0.2818: real time    0.2819
    FORCOR:  cpu time    0.0901: real time    0.0902
    FORHAR:  cpu time    0.0233: real time    0.0233
    MIXING:  cpu time    0.0041: real time    0.0041
    OFIELD:  cpu time    0.0000: real time    0.0000

  FORCE on cell =-STRESS in cart. coord.  units (eV):
  Direction    XX          YY          ZZ          XY          YZ          ZX
  --------------------------------------------------------------------------------------
  Alpha Z   141.71061   141.71061   141.71061
  Ewald    -861.35744  -861.35744  -861.35744     0.00037     0.00037     0.00037
  Hartree   350.78256   350.78256   350.78256    -0.00001    -0.00001    -0.00001
  E(xc)    -170.72424  -170.72424  -170.72424     0.00000     0.00000     0.00000
  Local    -118.52075  -118.52075  -118.52075    -0.00042    -0.00042    -0.00042
  n-local    27.55882    27.76324    25.80537     1.18024    -0.98530     0.65671
  augment   118.58947   118.58947   118.58947    -0.00001    -0.00001    -0.00001
  Kinetic   513.34444   512.99545   511.08446     1.86250    -1.57282     1.07730
  Fock        0.00000     0.00000     0.00000     0.00000     0.00000     0.00000
  -------------------------------------------------------------------------------------
  Total      -0.00252    -0.00252    -0.00252     0.00000    -0.00000     0.00000
  in kB      -0.02058    -0.02058    -0.02058     0.00000    -0.00000     0.00000
  external pressure =       -0.02 kB  Pullay stress =        0.00 kB


 VOLUME and BASIS-vectors are now :
 -----------------------------------------------------------------------------
  energy-cutoff  :      520.00
  volume of cell :      195.99
      direct lattice vectors                 reciprocal lattice vectors
     0.000000000  4.610360182  4.610360182    -0.108451396  0.108451396  0.108451396
     4.610360182  0.000000000  4.610360182     0.108451396 -0.108451396  0.108451396
     4.610360182  4.610360182 -0.000000000     0.108451396  0.108451396 -0.108451396

  length of vectors
     6.520033897  6.520033897  6.520033897     0.187843329  0.187843329  0.187843329


 FORCES acting on ions
    electron-ion (+dipol)            ewald-force                    non-local-force                 convergence-correction
 -----------------------------------------------------------------------------------------------
   -.147E-02 -.147E-02 -.139E-02   -.587E-03 -.587E-03 -.587E-03   0.381E-20 -.551E-20 -.423E-20   -.249E-07 -.249E-07 -.337E-07
   0.142E-02 0.142E-02 0.147E-02   0.117E-03 0.117E-03 0.117E-03   -.466E-20 -.466E-20 0.254E-20   0.181E-07 0.181E-07 0.241E-07
   0.965E-03 0.965E-03 0.102E-02   -.447E-09 -.447E-09 -.447E-09   0.173E-16 0.867E-17 0.234E-16   0.292E-07 0.292E-07 0.327E-07
   0.350E-02 0.350E-02 0.356E-02   0.470E-03 0.470E-03 0.470E-03   -.260E-16 -.694E-17 -.158E-16   0.130E-06 0.130E-06 0.134E-06
 -----------------------------------------------------------------------------------------------
   0.442E-02 0.442E-02 0.466E-02   0.658E-15 0.855E-15 -.209E-15   -.867E-17 0.172E-17 0.759E-17   0.153E-06 0.153E-06 0.157E-06
 
 
 POSITION                                       TOTAL-FORCE (eV/Angst)
 -----------------------------------------------------------------------------------
      2.30518      2.30518      2.30518        -0.000000     -0.000000     -0.000000
      6.91554      6.91554      6.91554         0.000000     -0.000000      0.000000
     -0.00000     -0.00000     -0.00000         0.000000      0.000000      0.000000
      4.61036      4.61036      4.61036        -0.000000     -0.000000     -0.000000
 -----------------------------------------------------------------------------------
    total drift:                                0.004422      0.004422      0.004662


--------------------------------------------------------------------------------------------------------



  FREE ENERGIE OF THE ION-ELECTRON SYSTEM (eV)
  ---------------------------------------------------
  free  energy   TOTEN  =        -7.94259363 eV

  energy  without entropy=       -7.94258433  energy(sigma->0) =       -7.94258898
 
 d Force = 0.0000000E+00[ 0.000E+00, 0.000E+00]  d Energy = 0.1043450E-04-0.104E-04
 d Force = 0.0000000E+00[ 0.000E+00, 0.000E+00]  d Ewald  =-0.1070643E+01 0.107E+01


--------------------------------------------------------------------------------------------------------


    POTLOK:  cpu time    0.0869: real time    0.0869


--------------------------------------------------------------------------------------------------------




--------------------------------------------------------------------------------------------------------


  
 reached required accuracy - stopping structural energy minimisation
     LOOP+:  cpu time    3.7149: real time    3.7262
    4ORBIT:  cpu time    0.0000: real time    0.0000

 total amount of memory used by VASP MPI-rank0    61959. kBytes
=======================================================================

   base      :      30000. kBytes
   nonl-proj :       9280. kBytes
   fftplans  :       4869. kBytes
   grid      :       9037. kBytes
   one-center:         15. kBytes
   wavefun   :       8758. kBytes
 
  
  
 General timing and accounting informations for this job:
 ========================================================
  
                  Total CPU time used (sec):       24.535
                            User time (sec):       23.983
                          System time (sec):        0.552
                         Elapsed time (sec):       24.657
  
                   Maximum memory used (kb):      125780.
                   Average memory used (kb):           0.
  
                          Minor page faults:        50476
                          Major page faults:            0
                 Voluntary context switches:          476
