<?xml version="1.0" encoding="ISO-8859-1"?>
<modeling>
 <generator>
  <i name="program" type="string">vasp </i>
  <i name="version" type="string">5.4.4.18Apr17-6-g9f103f2a35  </i>
  <i name="subversion" type="string">(build Jun 23 2019 17:35:09) complex            parallel </i>
  <i name="platform" type="string">LinuxIFC </i>
  <i name="date" type="string">2020 01 14 </i>
  <i name="time" type="string">23:18:53 </i>
 </generator>
 <incar>
  <i type="int" name="ISTART">     0</i>
  <i type="string" name="PREC">acc</i>
  <i type="string" name="ALGO"> Normal</i>
  <i type="int" name="ISPIN">     1</i>
  <i type="int" name="NELMIN">     5</i>
  <i type="int" name="IBRION">     2</i>
  <i name="EDIFF">      0.00001000</i>
  <i name="EDIFFG">     -0.00100000</i>
  <i type="int" name="NSW">   100</i>
  <i type="int" name="ISIF">     3</i>
  <i name="ENCUT">    520.00000000</i>
  <i type="logical" name="LREAL"> F  </i>
  <i type="logical" name="LPLANE"> T  </i>
  <i type="int" name="ISMEAR">     0</i>
  <i name="SIGMA">      0.05000000</i>
  <i type="logical" name="LWAVE"> F  </i>
  <i type="logical" name="LCHARG"> F  </i>
  <v type="int" name="KPOINT_BSE">    -1     0     0     0</v>
  <i type="string" name="GGA"> PE</i>
 </incar>
 <structure name="primitive_cell" >
  <crystal>
   <varray name="basis" >
    <v>       0.00000000       4.56859400       4.56859400 </v>
    <v>       4.56859400       0.00000000       4.56859400 </v>
    <v>       4.56859400       4.56859400       0.00000000 </v>
   </varray>
   <i name="volume">    190.71185518 </i>
   <varray name="rec_basis" >
    <v>      -0.10944286       0.10944286       0.10944286 </v>
    <v>       0.10944286      -0.10944286       0.10944286 </v>
    <v>       0.10944286       0.10944286      -0.10944286 </v>
   </varray>
  </crystal>
  <varray name="positions" >
   <v>       0.25000033       0.25000033       0.25000033 </v>
   <v>       0.49999956       0.49999956       0.49999956 </v>
   <v>       0.00000000       0.00000000       0.00000000 </v>
   <v>      -0.25000011      -0.25000011      -0.25000011 </v>
  </varray>
 </structure>
 <varray name="primitive_index" >
  <v type="int" >        1 </v>
  <v type="int" >        4 </v>
  <v type="int" >        3 </v>
  <v type="int" >        2 </v>
 </varray>
 <kpoints>
  <generation param="Gamma">
   <v type="int" name="divisions">       8        8        8 </v>
   <v name="usershift">      0.00000000       0.00000000       0.00000000 </v>
   <v name="genvec1">      0.12500000       0.00000000       0.00000000 </v>
   <v name="genvec2">      0.00000000       0.12500000       0.00000000 </v>
   <v name="genvec3">      0.00000000       0.00000000       0.12500000 </v>
   <v name="shift">      0.00000000       0.00000000       0.00000000 </v>
  </generation>
  <varray name="kpointlist" >
   <v>       0.00000000       0.00000000       0.00000000 </v>
   <v>       0.12500000       0.00000000       0.00000000 </v>
   <v>       0.25000000       0.00000000       0.00000000 </v>
   <v>       0.37500000       0.00000000       0.00000000 </v>
   <v>       0.50000000       0.00000000       0.00000000 </v>
   <v>       0.12500000       0.12500000       0.00000000 </v>
   <v>       0.25000000       0.12500000       0.00000000 </v>
   <v>       0.37500000       0.12500000       0.00000000 </v>
   <v>       0.50000000       0.12500000       0.00000000 </v>
   <v>      -0.37500000       0.12500000       0.00000000 </v>
   <v>      -0.25000000       0.12500000       0.00000000 </v>
   <v>      -0.12500000       0.12500000       0.00000000 </v>
   <v>       0.25000000       0.25000000       0.00000000 </v>
   <v>       0.37500000       0.25000000       0.00000000 </v>
   <v>       0.50000000       0.25000000       0.00000000 </v>
   <v>      -0.37500000       0.25000000       0.00000000 </v>
   <v>      -0.25000000       0.25000000       0.00000000 </v>
   <v>       0.37500000       0.37500000       0.00000000 </v>
   <v>       0.50000000       0.37500000       0.00000000 </v>
   <v>      -0.37500000       0.37500000       0.00000000 </v>
   <v>       0.50000000       0.50000000       0.00000000 </v>
   <v>       0.37500000       0.25000000       0.12500000 </v>
   <v>       0.50000000       0.25000000       0.12500000 </v>
   <v>      -0.37500000       0.25000000       0.12500000 </v>
   <v>       0.50000000       0.37500000       0.12500000 </v>
   <v>      -0.37500000       0.37500000       0.12500000 </v>
   <v>      -0.25000000       0.37500000       0.12500000 </v>
   <v>      -0.37500000       0.50000000       0.12500000 </v>
   <v>      -0.25000000       0.50000000       0.25000000 </v>
  </varray>
  <varray name="weights" >
   <v>       0.00195312 </v>
   <v>       0.01562500 </v>
   <v>       0.01562500 </v>
   <v>       0.01562500 </v>
   <v>       0.00781250 </v>
   <v>       0.01171875 </v>
   <v>       0.04687500 </v>
   <v>       0.04687500 </v>
   <v>       0.04687500 </v>
   <v>       0.04687500 </v>
   <v>       0.04687500 </v>
   <v>       0.02343750 </v>
   <v>       0.01171875 </v>
   <v>       0.04687500 </v>
   <v>       0.04687500 </v>
   <v>       0.04687500 </v>
   <v>       0.02343750 </v>
   <v>       0.01171875 </v>
   <v>       0.04687500 </v>
   <v>       0.02343750 </v>
   <v>       0.00585938 </v>
   <v>       0.04687500 </v>
   <v>       0.09375000 </v>
   <v>       0.04687500 </v>
   <v>       0.04687500 </v>
   <v>       0.09375000 </v>
   <v>       0.04687500 </v>
   <v>       0.02343750 </v>
   <v>       0.01171875 </v>
  </varray>
 </kpoints>
 <parameters>
  <separator name="general" >
   <i type="string" name="SYSTEM">unknown system</i>
   <i type="logical" name="LCOMPAT"> F  </i>
  </separator>
  <separator name="electronic" >
   <i type="string" name="PREC">acc</i>
   <i name="ENMAX">    520.00000000</i>
   <i name="ENAUG">    442.89900000</i>
   <i name="EDIFF">      0.00001000</i>
   <i type="int" name="IALGO">    38</i>
   <i type="int" name="IWAVPR">    11</i>
   <i type="int" name="NBANDS">    25</i>
   <i name="NELECT">     42.00000000</i>
   <i type="int" name="TURBO">     0</i>
   <i type="int" name="IRESTART">     0</i>
   <i type="int" name="NREBOOT">     0</i>
   <i type="int" name="NMIN">     0</i>
   <i name="EREF">      0.00000000</i>
   <separator name="electronic smearing" >
    <i type="int" name="ISMEAR">     0</i>
    <i name="SIGMA">      0.05000000</i>
    <i name="KSPACING">      0.50000000</i>
    <i type="logical" name="KGAMMA"> T  </i>
   </separator>
   <separator name="electronic projectors" >
    <i type="logical" name="LREAL"> F  </i>
    <v name="ROPT">      0.00000000      0.00000000      0.00000000</v>
    <i type="int" name="LMAXPAW">  -100</i>
    <i type="int" name="LMAXMIX">     2</i>
    <i type="logical" name="NLSPLINE"> F  </i>
   </separator>
   <separator name="electronic startup" >
    <i type="int" name="ISTART">     0</i>
    <i type="int" name="ICHARG">     2</i>
    <i type="int" name="INIWAV">     1</i>
   </separator>
   <separator name="electronic spin" >
    <i type="int" name="ISPIN">     1</i>
    <i type="logical" name="LNONCOLLINEAR"> F  </i>
    <v name="MAGMOM">      1.00000000      1.00000000      1.00000000      1.00000000</v>
    <i name="NUPDOWN">     -1.00000000</i>
    <i type="logical" name="LSORBIT"> F  </i>
    <v name="SAXIS">      0.00000000      0.00000000      1.00000000</v>
    <i type="logical" name="LSPIRAL"> F  </i>
    <v name="QSPIRAL">      0.00000000      0.00000000      0.00000000</v>
    <i type="logical" name="LZEROZ"> F  </i>
   </separator>
   <separator name="electronic exchange-correlation" >
    <i type="logical" name="LASPH"> F  </i>
    <i type="logical" name="LMETAGGA"> F  </i>
   </separator>
   <separator name="electronic convergence" >
    <i type="int" name="NELM">    60</i>
    <i type="int" name="NELMDL">    -5</i>
    <i type="int" name="NELMIN">     5</i>
    <i name="ENINI">    520.00000000</i>
    <separator name="electronic convergence detail" >
     <i type="logical" name="LDIAG"> T  </i>
     <i type="logical" name="LSUBROT"> F  </i>
     <i name="WEIMIN">      0.00100000</i>
     <i name="EBREAK">      0.00000010</i>
     <i name="DEPER">      0.30000000</i>
     <i type="int" name="NRMM">     4</i>
     <i name="TIME">      0.40000000</i>
    </separator>
   </separator>
   <separator name="electronic mixer" >
    <i name="AMIX">      0.40000000</i>
    <i name="BMIX">      1.00000000</i>
    <i name="AMIN">      0.10000000</i>
    <i name="AMIX_MAG">      1.60000000</i>
    <i name="BMIX_MAG">      1.00000000</i>
    <separator name="electronic mixer details" >
     <i type="int" name="IMIX">     4</i>
     <i type="logical" name="MIXFIRST"> F  </i>
     <i type="int" name="MAXMIX">   -45</i>
     <i name="WC">    100.00000000</i>
     <i type="int" name="INIMIX">     1</i>
     <i type="int" name="MIXPRE">     1</i>
     <i type="int" name="MREMOVE">     5</i>
    </separator>
   </separator>
   <separator name="electronic dipolcorrection" >
    <i type="logical" name="LDIPOL"> F  </i>
    <i type="logical" name="LMONO"> F  </i>
    <i type="int" name="IDIPOL">     0</i>
    <i name="EPSILON">      1.00000000</i>
    <v name="DIPOL">   -100.00000000   -100.00000000   -100.00000000</v>
    <i name="EFIELD">      0.00000000</i>
   </separator>
  </separator>
  <separator name="grids" >
   <i type="int" name="NGX">    48</i>
   <i type="int" name="NGY">    48</i>
   <i type="int" name="NGZ">    48</i>
   <i type="int" name="NGXF">    96</i>
   <i type="int" name="NGYF">    96</i>
   <i type="int" name="NGZF">    96</i>
   <i type="logical" name="ADDGRID"> F  </i>
  </separator>
  <separator name="ionic" >
   <i type="int" name="NSW">   100</i>
   <i type="int" name="IBRION">     2</i>
   <i type="int" name="MDALGO">     0</i>
   <i type="int" name="ISIF">     3</i>
   <i name="PSTRESS">      0.00000000</i>
   <i name="EDIFFG">     -0.00100000</i>
   <i type="int" name="NFREE">     1</i>
   <i name="POTIM">      0.50000000</i>
   <i name="SMASS">     -3.00000000</i>
   <i name="SCALEE">      1.00000000</i>
  </separator>
  <separator name="ionic md" >
   <i name="TEBEG">      0.00010000</i>
   <i name="TEEND">      0.00010000</i>
   <i type="int" name="NBLOCK">     1</i>
   <i type="int" name="KBLOCK">   100</i>
   <i type="int" name="NPACO">   256</i>
   <i name="APACO">     16.00000000</i>
  </separator>
  <separator name="symmetry" >
   <i type="int" name="ISYM">     2</i>
   <i name="SYMPREC">      0.00001000</i>
  </separator>
  <separator name="dos" >
   <i type="int" name="LORBIT">     0</i>
   <v name="RWIGS">     -1.00000000     -1.00000000     -1.00000000</v>
   <i type="int" name="NEDOS">   301</i>
   <i name="EMIN">     10.00000000</i>
   <i name="EMAX">    -10.00000000</i>
   <i name="EFERMI">      0.00000000</i>
  </separator>
  <separator name="writing" >
   <i type="int" name="NWRITE">     2</i>
   <i type="logical" name="LWAVE"> F  </i>
   <i type="logical" name="LDOWNSAMPLE"> F  </i>
   <i type="logical" name="LCHARG"> F  </i>
   <i type="logical" name="LPARD"> F  </i>
   <i type="logical" name="LVTOT"> F  </i>
   <i type="logical" name="LVHAR"> F  </i>
   <i type="logical" name="LELF"> F  </i>
   <i type="logical" name="LOPTICS"> F  </i>
   <v name="STM">      0.00000000      0.00000000      0.00000000      0.00000000      0.00000000      0.00000000      0.00000000</v>
  </separator>
  <separator name="performance" >
   <i type="int" name="NPAR">     1</i>
   <i type="int" name="NSIM">     4</i>
   <i type="int" name="NBLK">    -1</i>
   <i type="logical" name="LPLANE"> T  </i>
   <i type="logical" name="LSCALAPACK"> T  </i>
   <i type="logical" name="LSCAAWARE"> F  </i>
   <i type="logical" name="LSCALU"> F  </i>
   <i type="logical" name="LASYNC"> F  </i>
   <i type="logical" name="LORBITALREAL"> F  </i>
  </separator>
  <separator name="miscellaneous" >
   <i type="int" name="IDIOT">     3</i>
   <i type="int" name="ISPECIAL">     0</i>
   <i type="logical" name="LMUSIC"> F  </i>
   <v name="POMASS">    208.98000000    132.90000000     85.46800000</v>
   <v name="DARWINR">      0.00000000      0.00000000      0.00000000</v>
   <v name="DARWINV">      1.00000000      1.00000000      1.00000000</v>
   <i type="logical" name="LCORR"> T  </i>
  </separator>
  <i type="logical" name="GGA_COMPAT"> T  </i>
  <i type="logical" name="LBERRY"> F  </i>
  <i type="int" name="ICORELEVEL">     0</i>
  <i type="logical" name="LDAU"> F  </i>
  <i type="int" name="I_CONSTRAINED_M">     0</i>
  <separator name="electronic exchange-correlation" >
   <i type="string" name="GGA">PE</i>
   <i type="int" name="VOSKOWN">     0</i>
   <i type="logical" name="LHFCALC"> F  </i>
   <i type="string" name="PRECFOCK"></i>
   <i type="logical" name="LSYMGRAD"> F  </i>
   <i type="logical" name="LHFONE"> F  </i>
   <i type="logical" name="LRHFCALC"> F  </i>
   <i type="logical" name="LTHOMAS"> F  </i>
   <i type="logical" name="LMODELHF"> F  </i>
   <i name="ENCUT4O">     -1.00000000</i>
   <i type="int" name="EXXOEP">     0</i>
   <i type="int" name="FOURORBIT">     0</i>
   <i name="AEXX">      0.00000000</i>
   <i name="HFALPHA">      0.00000000</i>
   <i name="MCALPHA">      0.00000000</i>
   <i name="ALDAX">      1.00000000</i>
   <i name="AGGAX">      1.00000000</i>
   <i name="ALDAC">      1.00000000</i>
   <i name="AGGAC">      1.00000000</i>
   <i type="int" name="NKREDX">     1</i>
   <i type="int" name="NKREDY">     1</i>
   <i type="int" name="NKREDZ">     1</i>
   <i type="logical" name="SHIFTRED"> F  </i>
   <i type="logical" name="ODDONLY"> F  </i>
   <i type="logical" name="EVENONLY"> F  </i>
   <i type="int" name="LMAXFOCK">     0</i>
   <i type="int" name="NMAXFOCKAE">     0</i>
   <i type="logical" name="LFOCKAEDFT"> F  </i>
   <i name="HFSCREEN">      0.00000000</i>
   <i name="HFSCREENC">      0.00000000</i>
   <i type="int" name="NBANDSGWLOW">     0</i>
  </separator>
  <separator name="vdW DFT" >
   <i type="logical" name="LUSE_VDW"> F  </i>
   <i name="Zab_VDW">     -0.84910000</i>
   <i name="PARAM1">      0.12340000</i>
   <i name="PARAM2">      1.00000000</i>
   <i name="PARAM3">      0.00000000</i>
  </separator>
  <separator name="model GW" >
   <i type="int" name="MODEL_GW">     0</i>
   <i name="MODEL_EPS0">     28.60677828</i>
   <i name="MODEL_ALPHA">      1.00000000</i>
  </separator>
  <separator name="linear response parameters" >
   <i type="logical" name="LEPSILON"> F  </i>
   <i type="logical" name="LRPA"> F  </i>
   <i type="logical" name="LNABLA"> F  </i>
   <i type="logical" name="LVEL"> F  </i>
   <i type="int" name="KINTER">     0</i>
   <i name="CSHIFT">      0.10000000</i>
   <i name="OMEGAMAX">     -1.00000000</i>
   <i name="DEG_THRESHOLD">      0.00200000</i>
   <i name="RTIME">     -0.10000000</i>
   <i name="WPLASMAI">      0.00000000</i>
   <v name="DFIELD">      0.00000000      0.00000000      0.00000000</v>
   <v name="WPLASMA">      0.00000000      0.00000000      0.00000000      0.00000000      0.00000000      0.00000000      0.00000000      0.00000000      0.00000000</v>
  </separator>
  <separator name="orbital magnetization" >
   <i type="logical" name="NUCIND"> F  </i>
   <v name="MAGPOS">      0.00000000      0.00000000      0.00000000</v>
   <i type="logical" name="LNICSALL"> T  </i>
   <i type="logical" name="ORBITALMAG"> F  </i>
   <i type="logical" name="LMAGBLOCH"> F  </i>
   <i type="logical" name="LCHIMAG"> F  </i>
   <i type="logical" name="LGAUGE"> T  </i>
   <i type="int" name="MAGATOM">     0</i>
   <v name="MAGDIPOL">      0.00000000      0.00000000      0.00000000</v>
   <v name="AVECCONST">      0.00000000      0.00000000      0.00000000</v>
  </separator>
  <separator name="response functions" >
   <i type="logical" name="LADDER"> F  </i>
   <i type="logical" name="LRPAFORCE"> F  </i>
   <i type="logical" name="LFXC"> F  </i>
   <i type="logical" name="LHARTREE"> T  </i>
   <i type="int" name="IBSE">     0</i>
   <v type="int" name="KPOINT">    -1     0     0     0</v>
   <i type="logical" name="LTCTE"> F  </i>
   <i type="logical" name="LTETE"> F  </i>
   <i type="logical" name="LTRIPLET"> F  </i>
   <i type="logical" name="LFXCEPS"> F  </i>
   <i type="logical" name="LFXHEG"> F  </i>
   <i type="int" name="NATURALO">     2</i>
   <i type="logical" name="L2ORDER"> F  </i>
   <i type="logical" name="LMP2LT"> F  </i>
   <i type="logical" name="LUSEW"> F  </i>
   <i name="ENCUTGW">     -2.00000000</i>
   <i name="ENCUTGWSOFT">     -2.00000000</i>
   <i name="ENCUTLF">     -1.00000000</i>
   <i type="int" name="LMAXMP2">    -1</i>
   <i name="SCISSOR">      0.00000000</i>
   <i type="int" name="NOMEGA">     0</i>
   <i type="int" name="NOMEGAR">     0</i>
   <i type="int" name="NBANDSGW">    -1</i>
   <i type="int" name="NBANDSO">    -1</i>
   <i type="int" name="NBANDSV">    -1</i>
   <i type="int" name="NELM">     1</i>
   <i type="int" name="NELMHF">     1</i>
   <i type="int" name="DIM">     3</i>
   <i type="int" name="ANTIRES">     0</i>
   <i name="OMEGAMAX">    -30.00000000</i>
   <i name="OMEGAMIN">    -30.00000000</i>
   <i name="OMEGATL">   -200.00000000</i>
   <i type="int" name="OMEGAGRID">   140</i>
   <i name="CSHIFT">     -0.10000000</i>
   <i type="logical" name="SELFENERGY"> F  </i>
   <i type="logical" name="LSPECTRAL"> F  </i>
   <i type="logical" name="LSPECTRALGW"> F  </i>
   <i type="logical" name="LSINGLES"> F  </i>
   <i type="logical" name="LFERMIGW"> F  </i>
   <i type="logical" name="ODDONLYGW"> F  </i>
   <i type="logical" name="EVENONLYGW"> F  </i>
   <i type="int" name="NKREDLFX">     1</i>
   <i type="int" name="NKREDLFY">     1</i>
   <i type="int" name="NKREDLFZ">     1</i>
   <i type="int" name="MAXMEM">  2800</i>
   <i type="int" name="TELESCOPE">     0</i>
   <i type="int" name="TAUPAR">     1</i>
   <i type="int" name="OMEGAPAR">    -1</i>
   <i name="LAMBDA">      1.00000000</i>
  </separator>
  <separator name="External order field" >
   <i name="OFIELD_KAPPA">      0.00000000</i>
   <v name="OFIELD_K">      0.00000000      0.00000000      0.00000000</v>
   <i name="OFIELD_Q6_NEAR">      0.00000000</i>
   <i name="OFIELD_Q6_FAR">      0.00000000</i>
   <i name="OFIELD_A">      0.00000000</i>
  </separator>
 </parameters>
 <atominfo>
  <atoms>       4 </atoms>
  <types>       3 </types>
  <array name="atoms" >
   <dimension dim="1">ion</dimension>
   <field type="string">element</field>
   <field type="int">atomtype</field>
   <set>
    <rc><c>Bi</c><c>   1</c></rc>
    <rc><c>Cs</c><c>   2</c></rc>
    <rc><c>Rb</c><c>   3</c></rc>
    <rc><c>Rb</c><c>   3</c></rc>
   </set>
  </array>
  <array name="atomtypes" >
   <dimension dim="1">type</dimension>
   <field type="int">atomspertype</field>
   <field type="string">element</field>
   <field>mass</field>
   <field>valence</field>
   <field type="string">pseudopotential</field>
   <set>
    <rc><c>   1</c><c>Bi</c><c>    208.98000000</c><c>     15.00000000</c><c>  PAW_PBE Bi_d 06Sep2000                </c></rc>
    <rc><c>   1</c><c>Cs</c><c>    132.90000000</c><c>      9.00000000</c><c>  PAW_PBE Cs_sv 08Apr2002               </c></rc>
    <rc><c>   2</c><c>Rb</c><c>     85.46800000</c><c>      9.00000000</c><c>  PAW_PBE Rb_sv 06Sep2000               </c></rc>
   </set>
  </array>
 </atominfo>
 <structure name="initialpos" >
  <crystal>
   <varray name="basis" >
    <v>       0.00000000       4.56859400       4.56859400 </v>
    <v>       4.56859400       0.00000000       4.56859400 </v>
    <v>       4.56859400       4.56859400       0.00000000 </v>
   </varray>
   <i name="volume">    190.71185518 </i>
   <varray name="rec_basis" >
    <v>      -0.10944286       0.10944286       0.10944286 </v>
    <v>       0.10944286      -0.10944286       0.10944286 </v>
    <v>       0.10944286       0.10944286      -0.10944286 </v>
   </varray>
  </crystal>
  <varray name="positions" >
   <v>       0.25000033       0.25000033       0.25000033 </v>
   <v>       0.74999989       0.74999989       0.74999989 </v>
   <v>       0.00000000       0.00000000       0.00000000 </v>
   <v>       0.49999956       0.49999956       0.49999956 </v>
  </varray>
 </structure>
 <calculation>
  <scstep>
   <time name="dav">    0.50    0.50</time>
   <time name="total">    0.59    0.59</time>
   <energy>
    <i name="alphaZ">    145.63281582 </i>
    <i name="ewald">  -2607.69375360 </i>
    <i name="hartreedc">  -1035.57759202 </i>
    <i name="XCdc">    117.04167598 </i>
    <i name="pawpsdc">   3110.29076924 </i>
    <i name="pawaedc">  -3064.67432099 </i>
    <i name="eentropy">     -0.00154487 </i>
    <i name="bandstr">   -130.35809627 </i>
    <i name="atom">   3839.88806440 </i>
    <i name="e_fr_energy">    374.54801769 </i>
    <i name="e_wo_entrp">    374.54956256 </i>
    <i name="e_0_energy">    374.54879013 </i>
   </energy>
  </scstep>
  <scstep>
   <time name="dav">    0.53    0.53</time>
   <time name="total">    0.53    0.53</time>
   <energy>
    <i name="e_fr_energy">     26.06430676 </i>
    <i name="e_wo_entrp">     26.06460297 </i>
    <i name="e_0_energy">     26.06445486 </i>
   </energy>
  </scstep>
  <scstep>
   <time name="dav">    0.58    0.58</time>
   <time name="total">    0.58    0.58</time>
   <energy>
    <i name="e_fr_energy">     -7.71435056 </i>
    <i name="e_wo_entrp">     -7.71435056 </i>
    <i name="e_0_energy">     -7.71435056 </i>
   </energy>
  </scstep>
  <scstep>
   <time name="dav">    0.68    0.68</time>
   <time name="total">    0.68    0.68</time>
   <energy>
    <i name="e_fr_energy">     -8.92149264 </i>
    <i name="e_wo_entrp">     -8.92149264 </i>
    <i name="e_0_energy">     -8.92149264 </i>
   </energy>
  </scstep>
  <scstep>
   <time name="dav">    0.61    0.61</time>
   <time name="total">    0.67    0.67</time>
   <energy>
    <i name="e_fr_energy">     -8.96121438 </i>
    <i name="e_wo_entrp">     -8.96121438 </i>
    <i name="e_0_energy">     -8.96121438 </i>
   </energy>
  </scstep>
  <scstep>
   <time name="dav">    0.55    0.55</time>
   <time name="total">    0.70    0.70</time>
   <energy>
    <i name="e_fr_energy">     -8.07142008 </i>
    <i name="e_wo_entrp">     -8.07142008 </i>
    <i name="e_0_energy">     -8.07142008 </i>
   </energy>
  </scstep>
  <scstep>
   <time name="dav">    0.57    0.57</time>
   <time name="total">    0.72    0.72</time>
   <energy>
    <i name="e_fr_energy">     -7.92855225 </i>
    <i name="e_wo_entrp">     -7.92855069 </i>
    <i name="e_0_energy">     -7.92855147 </i>
   </energy>
  </scstep>
  <scstep>
   <time name="dav">    0.55    0.55</time>
   <time name="total">    0.69    0.70</time>
   <energy>
    <i name="e_fr_energy">     -7.93953405 </i>
    <i name="e_wo_entrp">     -7.93953398 </i>
    <i name="e_0_energy">     -7.93953401 </i>
   </energy>
  </scstep>
  <scstep>
   <time name="dav">    0.54    0.54</time>
   <time name="total">    0.69    0.69</time>
   <energy>
    <i name="e_fr_energy">     -7.93876361 </i>
    <i name="e_wo_entrp">     -7.93876153 </i>
    <i name="e_0_energy">     -7.93876257 </i>
   </energy>
  </scstep>
  <scstep>
   <time name="dav">    0.55    0.55</time>
   <time name="total">    0.70    0.70</time>
   <energy>
    <i name="e_fr_energy">     -7.93807874 </i>
    <i name="e_wo_entrp">     -7.93807821 </i>
    <i name="e_0_energy">     -7.93807848 </i>
   </energy>
  </scstep>
  <scstep>
   <time name="dav">    0.66    0.66</time>
   <time name="total">    0.81    0.81</time>
   <energy>
    <i name="e_fr_energy">     -7.93817529 </i>
    <i name="e_wo_entrp">     -7.93817485 </i>
    <i name="e_0_energy">     -7.93817507 </i>
   </energy>
  </scstep>
  <scstep>
   <time name="dav">    0.50    0.50</time>
   <time name="total">    0.65    0.65</time>
   <energy>
    <i name="e_fr_energy">     -7.93815795 </i>
    <i name="e_wo_entrp">     -7.93815738 </i>
    <i name="e_0_energy">     -7.93815767 </i>
   </energy>
  </scstep>
  <scstep>
   <time name="dav">    0.44    0.44</time>
   <time name="total">    0.52    0.52</time>
   <energy>
    <i name="alphaZ">    145.63281582 </i>
    <i name="ewald">  -2607.69375360 </i>
    <i name="hartreedc">  -1038.39114988 </i>
    <i name="XCdc">    116.89689919 </i>
    <i name="pawpsdc">   3244.95474921 </i>
    <i name="pawaedc">  -3201.55557119 </i>
    <i name="eentropy">     -0.00000053 </i>
    <i name="bandstr">   -507.67021007 </i>
    <i name="atom">   3839.88806440 </i>
    <i name="e_fr_energy">     -7.93815665 </i>
    <i name="e_wo_entrp">     -7.93815612 </i>
    <i name="e_0_energy">     -7.93815638 </i>
   </energy>
  </scstep>
  <structure>
   <crystal>
    <varray name="basis" >
     <v>       0.00000000       4.56859400       4.56859400 </v>
     <v>       4.56859400       0.00000000       4.56859400 </v>
     <v>       4.56859400       4.56859400       0.00000000 </v>
    </varray>
    <i name="volume">    190.71185518 </i>
    <varray name="rec_basis" >
     <v>      -0.10944286       0.10944286       0.10944286 </v>
     <v>       0.10944286      -0.10944286       0.10944286 </v>
     <v>       0.10944286       0.10944286      -0.10944286 </v>
    </varray>
   </crystal>
   <varray name="positions" >
    <v>       0.25000033       0.25000033       0.25000033 </v>
    <v>       0.74999989       0.74999989       0.74999989 </v>
    <v>       0.00000000       0.00000000       0.00000000 </v>
    <v>       0.49999956       0.49999956       0.49999956 </v>
   </varray>
  </structure>
  <varray name="forces" >
   <v>      -0.00000000      -0.00000000       0.00000000 </v>
   <v>       0.00000000       0.00000000       0.00000000 </v>
   <v>      -0.00000000      -0.00000000      -0.00000000 </v>
   <v>       0.00000000       0.00000000       0.00000000 </v>
  </varray>
  <varray name="stress" >
   <v>       2.83340835      -0.00000000       0.00000000 </v>
   <v>       0.00000000       2.83340835      -0.00000000 </v>
   <v>       0.00000000       0.00000000       2.83340835 </v>
  </varray>
  <energy>
   <i name="e_fr_energy">     -7.93815665 </i>
   <i name="e_wo_entrp">     -7.93815638 </i>
   <i name="e_0_energy">     -0.00000053 </i>
  </energy>
  <time name="totalsc">    9.26    9.28</time>
 </calculation>
 <calculation>
  <scstep>
   <time name="dav">    0.51    0.51</time>
   <time name="total">    0.66    0.66</time>
   <energy>
    <i name="alphaZ">    143.87001037 </i>
    <i name="ewald">  -2597.12944510 </i>
    <i name="hartreedc">  -1034.19020611 </i>
    <i name="XCdc">    116.37345219 </i>
    <i name="pawpsdc">   3244.85598304 </i>
    <i name="pawaedc">  -3201.45889449 </i>
    <i name="eentropy">     -0.00000201 </i>
    <i name="bandstr">   -520.20075782 </i>
    <i name="atom">   3839.88806440 </i>
    <i name="e_fr_energy">     -7.99179553 </i>
    <i name="e_wo_entrp">     -7.99179353 </i>
    <i name="e_0_energy">     -7.99179453 </i>
   </energy>
  </scstep>
  <scstep>
   <time name="dav">    0.53    0.53</time>
   <time name="total">    0.68    0.68</time>
   <energy>
    <i name="e_fr_energy">     -7.95118114 </i>
    <i name="e_wo_entrp">     -7.95117729 </i>
    <i name="e_0_energy">     -7.95117921 </i>
   </energy>
  </scstep>
  <scstep>
   <time name="dav">    0.56    0.56</time>
   <time name="total">    0.71    0.71</time>
   <energy>
    <i name="e_fr_energy">     -7.94111844 </i>
    <i name="e_wo_entrp">     -7.94111609 </i>
    <i name="e_0_energy">     -7.94111726 </i>
   </energy>
  </scstep>
  <scstep>
   <time name="dav">    0.66    0.66</time>
   <time name="total">    0.81    0.81</time>
   <energy>
    <i name="e_fr_energy">     -7.94124452 </i>
    <i name="e_wo_entrp">     -7.94124264 </i>
    <i name="e_0_energy">     -7.94124358 </i>
   </energy>
  </scstep>
  <scstep>
   <time name="dav">    0.52    0.52</time>
   <time name="total">    0.67    0.67</time>
   <energy>
    <i name="e_fr_energy">     -7.94129005 </i>
    <i name="e_wo_entrp">     -7.94128754 </i>
    <i name="e_0_energy">     -7.94128879 </i>
   </energy>
  </scstep>
  <scstep>
   <time name="dav">    0.47    0.47</time>
   <time name="total">    0.62    0.62</time>
   <energy>
    <i name="e_fr_energy">     -7.94125870 </i>
    <i name="e_wo_entrp">     -7.94125640 </i>
    <i name="e_0_energy">     -7.94125755 </i>
   </energy>
  </scstep>
  <scstep>
   <time name="dav">    0.40    0.40</time>
   <time name="total">    0.49    0.49</time>
   <energy>
    <i name="alphaZ">    143.87001037 </i>
    <i name="ewald">  -2597.12944510 </i>
    <i name="hartreedc">  -1044.62931218 </i>
    <i name="XCdc">    116.84003985 </i>
    <i name="pawpsdc">   3239.99446855 </i>
    <i name="pawaedc">  -3196.55386297 </i>
    <i name="eentropy">     -0.00000214 </i>
    <i name="bandstr">   -510.22121424 </i>
    <i name="atom">   3839.88806440 </i>
    <i name="e_fr_energy">     -7.94125347 </i>
    <i name="e_wo_entrp">     -7.94125133 </i>
    <i name="e_0_energy">     -7.94125240 </i>
   </energy>
  </scstep>
  <structure>
   <crystal>
    <varray name="basis" >
     <v>       0.00000000       4.58717761       4.58717761 </v>
     <v>       4.58717761       0.00000000       4.58717761 </v>
     <v>       4.58717761       4.58717761      -0.00000000 </v>
    </varray>
    <i name="volume">    193.04860276 </i>
    <varray name="rec_basis" >
     <v>      -0.10899949       0.10899949       0.10899949 </v>
     <v>       0.10899949      -0.10899949       0.10899949 </v>
     <v>       0.10899949       0.10899949      -0.10899949 </v>
    </varray>
   </crystal>
   <varray name="positions" >
    <v>       0.25000033       0.25000033       0.25000033 </v>
    <v>       0.74999989       0.74999989       0.74999989 </v>
    <v>       0.00000000      -0.00000000      -0.00000000 </v>
    <v>       0.49999956       0.49999956       0.49999956 </v>
   </varray>
  </structure>
  <varray name="forces" >
   <v>      -0.00000000      -0.00000000       0.00000000 </v>
   <v>       0.00000000      -0.00000000      -0.00000000 </v>
   <v>       0.00000000       0.00000000       0.00000000 </v>
   <v>      -0.00000000      -0.00000000      -0.00000000 </v>
  </varray>
  <varray name="stress" >
   <v>       1.49399902      -0.00000000      -0.00000000 </v>
   <v>       0.00000000       1.49399902      -0.00000000 </v>
   <v>       0.00000000      -0.00000000       1.49399902 </v>
  </varray>
  <energy>
   <i name="e_fr_energy">     -7.94125347 </i>
   <i name="e_wo_entrp">     -7.94125240 </i>
   <i name="e_0_energy">     -0.00000214 </i>
  </energy>
  <time name="totalsc">    5.35    5.37</time>
 </calculation>
 <calculation>
  <scstep>
   <time name="dav">    0.49    0.49</time>
   <time name="total">    0.64    0.65</time>
   <energy>
    <i name="alphaZ">    141.88682782 </i>
    <i name="ewald">  -2585.14077367 </i>
    <i name="hartreedc">  -1039.80969491 </i>
    <i name="XCdc">    116.24341661 </i>
    <i name="pawpsdc">   3239.88563899 </i>
    <i name="pawaedc">  -3196.44389008 </i>
    <i name="eentropy">     -0.00000761 </i>
    <i name="bandstr">   -524.51778023 </i>
    <i name="atom">   3839.88806440 </i>
    <i name="e_fr_energy">     -8.00819868 </i>
    <i name="e_wo_entrp">     -8.00819106 </i>
    <i name="e_0_energy">     -8.00819487 </i>
   </energy>
  </scstep>
  <scstep>
   <time name="dav">    0.53    0.53</time>
   <time name="total">    0.68    0.68</time>
   <energy>
    <i name="e_fr_energy">     -7.95549527 </i>
    <i name="e_wo_entrp">     -7.95548065 </i>
    <i name="e_0_energy">     -7.95548796 </i>
   </energy>
  </scstep>
  <scstep>
   <time name="dav">    0.57    0.57</time>
   <time name="total">    0.72    0.72</time>
   <energy>
    <i name="e_fr_energy">     -7.94240021 </i>
    <i name="e_wo_entrp">     -7.94239119 </i>
    <i name="e_0_energy">     -7.94239570 </i>
   </energy>
  </scstep>
  <scstep>
   <time name="dav">    0.66    0.66</time>
   <time name="total">    0.81    0.81</time>
   <energy>
    <i name="e_fr_energy">     -7.94256678 </i>
    <i name="e_wo_entrp">     -7.94255949 </i>
    <i name="e_0_energy">     -7.94256314 </i>
   </energy>
  </scstep>
  <scstep>
   <time name="dav">    0.52    0.52</time>
   <time name="total">    0.67    0.67</time>
   <energy>
    <i name="e_fr_energy">     -7.94262978 </i>
    <i name="e_wo_entrp">     -7.94262010 </i>
    <i name="e_0_energy">     -7.94262494 </i>
   </energy>
  </scstep>
  <scstep>
   <time name="dav">    0.47    0.47</time>
   <time name="total">    0.62    0.62</time>
   <energy>
    <i name="e_fr_energy">     -7.94258955 </i>
    <i name="e_wo_entrp">     -7.94258068 </i>
    <i name="e_0_energy">     -7.94258512 </i>
   </energy>
  </scstep>
  <scstep>
   <time name="dav">    0.43    0.43</time>
   <time name="total">    0.52    0.52</time>
   <energy>
    <i name="alphaZ">    141.88682782 </i>
    <i name="ewald">  -2585.14077367 </i>
    <i name="hartreedc">  -1051.72480935 </i>
    <i name="XCdc">    116.77569374 </i>
    <i name="pawpsdc">   3234.41953346 </i>
    <i name="pawaedc">  -3190.92862770 </i>
    <i name="eentropy">     -0.00000827 </i>
    <i name="bandstr">   -513.11848363 </i>
    <i name="atom">   3839.88806440 </i>
    <i name="e_fr_energy">     -7.94258319 </i>
    <i name="e_wo_entrp">     -7.94257493 </i>
    <i name="e_0_energy">     -7.94257906 </i>
   </energy>
  </scstep>
  <structure>
   <crystal>
    <varray name="basis" >
     <v>       0.00000000       4.60845079       4.60845079 </v>
     <v>       4.60845079       0.00000000       4.60845079 </v>
     <v>       4.60845079       4.60845079      -0.00000000 </v>
    </varray>
    <i name="volume">    195.74688438 </i>
    <varray name="rec_basis" >
     <v>      -0.10849633       0.10849633       0.10849633 </v>
     <v>       0.10849633      -0.10849633       0.10849633 </v>
     <v>       0.10849633       0.10849633      -0.10849633 </v>
    </varray>
   </crystal>
   <varray name="positions" >
    <v>       0.25000033       0.25000033       0.25000033 </v>
    <v>       0.74999989       0.74999989       0.74999989 </v>
    <v>       0.00000000      -0.00000000      -0.00000000 </v>
    <v>       0.49999956       0.49999956       0.49999956 </v>
   </varray>
  </structure>
  <varray name="forces" >
   <v>       0.00000000      -0.00000000       0.00000000 </v>
   <v>      -0.00000000      -0.00000000       0.00000000 </v>
   <v>       0.00000000       0.00000000       0.00000000 </v>
   <v>      -0.00000000      -0.00000000      -0.00000000 </v>
  </varray>
  <varray name="stress" >
   <v>       0.12135452       0.00000000       0.00000000 </v>
   <v>      -0.00000000       0.12135452      -0.00000000 </v>
   <v>      -0.00000000       0.00000000       0.12135452 </v>
  </varray>
  <energy>
   <i name="e_fr_energy">     -7.94258319 </i>
   <i name="e_wo_entrp">     -7.94257906 </i>
   <i name="e_0_energy">     -0.00000827 </i>
  </energy>
  <time name="totalsc">    5.38    5.39</time>
 </calculation>
 <calculation>
  <scstep>
   <time name="dav">    0.51    0.51</time>
   <time name="total">    0.66    0.66</time>
   <energy>
    <i name="alphaZ">    141.71061232 </i>
    <i name="ewald">  -2584.07013028 </i>
    <i name="hartreedc">  -1051.29190302 </i>
    <i name="XCdc">    116.72222357 </i>
    <i name="pawpsdc">   3234.29289328 </i>
    <i name="pawaedc">  -3190.80059760 </i>
    <i name="eentropy">     -0.00000929 </i>
    <i name="bandstr">   -514.39426953 </i>
    <i name="atom">   3839.88806440 </i>
    <i name="e_fr_energy">     -7.94311616 </i>
    <i name="e_wo_entrp">     -7.94310686 </i>
    <i name="e_0_energy">     -7.94311151 </i>
   </energy>
  </scstep>
  <scstep>
   <time name="dav">    0.53    0.53</time>
   <time name="total">    0.68    0.68</time>
   <energy>
    <i name="e_fr_energy">     -7.94270018 </i>
    <i name="e_wo_entrp">     -7.94269042 </i>
    <i name="e_0_energy">     -7.94269530 </i>
   </energy>
  </scstep>
  <scstep>
   <time name="dav">    0.57    0.57</time>
   <time name="total">    0.72    0.72</time>
   <energy>
    <i name="e_fr_energy">     -7.94259582 </i>
    <i name="e_wo_entrp">     -7.94258650 </i>
    <i name="e_0_energy">     -7.94259116 </i>
   </energy>
  </scstep>
  <scstep>
   <time name="dav">    0.44    0.44</time>
   <time name="total">    0.59    0.59</time>
   <energy>
    <i name="e_fr_energy">     -7.94259475 </i>
    <i name="e_wo_entrp">     -7.94258559 </i>
    <i name="e_0_energy">     -7.94259017 </i>
   </energy>
  </scstep>
  <scstep>
   <time name="dav">    0.33    0.33</time>
   <time name="total">    0.42    0.42</time>
   <energy>
    <i name="alphaZ">    141.71061232 </i>
    <i name="ewald">  -2584.07013028 </i>
    <i name="hartreedc">  -1052.36377545 </i>
    <i name="XCdc">    116.77019234 </i>
    <i name="pawpsdc">   3233.85799515 </i>
    <i name="pawaedc">  -3190.35602716 </i>
    <i name="eentropy">     -0.00000930 </i>
    <i name="bandstr">   -513.37951565 </i>
    <i name="atom">   3839.88806440 </i>
    <i name="e_fr_energy">     -7.94259363 </i>
    <i name="e_wo_entrp">     -7.94258433 </i>
    <i name="e_0_energy">     -7.94258898 </i>
   </energy>
  </scstep>
  <structure>
   <crystal>
    <varray name="basis" >
     <v>       0.00000000       4.61036018       4.61036018 </v>
     <v>       4.61036018       0.00000000       4.61036018 </v>
     <v>       4.61036018       4.61036018      -0.00000000 </v>
    </varray>
    <i name="volume">    195.99029335 </i>
    <varray name="rec_basis" >
     <v>      -0.10845140       0.10845140       0.10845140 </v>
     <v>       0.10845140      -0.10845140       0.10845140 </v>
     <v>       0.10845140       0.10845140      -0.10845140 </v>
    </varray>
   </crystal>
   <varray name="positions" >
    <v>       0.25000033       0.25000033       0.25000033 </v>
    <v>       0.74999989       0.74999989       0.74999989 </v>
    <v>       0.00000000      -0.00000000      -0.00000000 </v>
    <v>       0.49999956       0.49999956       0.49999956 </v>
   </varray>
  </structure>
  <varray name="forces" >
   <v>      -0.00000000      -0.00000000      -0.00000000 </v>
   <v>       0.00000000      -0.00000000       0.00000000 </v>
   <v>       0.00000000       0.00000000       0.00000000 </v>
   <v>      -0.00000000      -0.00000000      -0.00000000 </v>
  </varray>
  <varray name="stress" >
   <v>      -0.02058496       0.00000000       0.00000000 </v>
   <v>       0.00000000      -0.02058496       0.00000000 </v>
   <v>       0.00000000      -0.00000000      -0.02058496 </v>
  </varray>
  <energy>
   <i name="e_fr_energy">     -7.94259363 </i>
   <i name="e_wo_entrp">     -7.94258898 </i>
   <i name="e_0_energy">     -0.00000930 </i>
  </energy>
  <time name="totalsc">    3.71    3.73</time>
  <eigenvalues>
   <array>
    <dimension dim="1">band</dimension>
    <dimension dim="2">kpoint</dimension>
    <dimension dim="3">spin</dimension>
    <field>eigene</field>
    <field>occ</field>
    <set>
     <set comment="spin 1">
      <set comment="kpoint 1">
       <r>  -25.9460    1.0000 </r>
       <r>  -25.9308    1.0000 </r>
       <r>  -21.3844    1.0000 </r>
       <r>  -19.0872    1.0000 </r>
       <r>  -19.0872    1.0000 </r>
       <r>  -19.0872    1.0000 </r>
       <r>  -19.0823    1.0000 </r>
       <r>  -19.0823    1.0000 </r>
       <r>  -10.1208    1.0000 </r>
       <r>  -10.1208    1.0000 </r>
       <r>  -10.1208    1.0000 </r>
       <r>  -10.0418    1.0000 </r>
       <r>  -10.0418    1.0000 </r>
       <r>  -10.0418    1.0000 </r>
       <r>   -8.2022    1.0000 </r>
       <r>   -8.2022    1.0000 </r>
       <r>   -8.2022    1.0000 </r>
       <r>   -7.0428    1.0000 </r>
       <r>    1.7208    1.0000 </r>
       <r>    1.7209    1.0000 </r>
       <r>    1.7209    1.0000 </r>
       <r>    1.9793    0.0109 </r>
       <r>    3.6668    0.0000 </r>
       <r>    3.6668    0.0000 </r>
       <r>    4.5896    0.0000 </r>
      </set>
      <set comment="kpoint 2">
       <r>  -25.9454    1.0000 </r>
       <r>  -25.9314    1.0000 </r>
       <r>  -21.3846    1.0000 </r>
       <r>  -19.0872    1.0000 </r>
       <r>  -19.0872    1.0000 </r>
       <r>  -19.0871    1.0000 </r>
       <r>  -19.0823    1.0000 </r>
       <r>  -19.0823    1.0000 </r>
       <r>  -10.1256    1.0000 </r>
       <r>  -10.1194    1.0000 </r>
       <r>  -10.1194    1.0000 </r>
       <r>  -10.0455    1.0000 </r>
       <r>  -10.0455    1.0000 </r>
       <r>  -10.0409    1.0000 </r>
       <r>   -8.2112    1.0000 </r>
       <r>   -8.1993    1.0000 </r>
       <r>   -8.1993    1.0000 </r>
       <r>   -7.0204    1.0000 </r>
       <r>    1.2968    1.0000 </r>
       <r>    1.6763    1.0000 </r>
       <r>    1.6764    1.0000 </r>
       <r>    2.5826    0.0000 </r>
       <r>    3.8409    0.0000 </r>
       <r>    3.8409    0.0000 </r>
       <r>    4.4404    0.0000 </r>
      </set>
      <set comment="kpoint 3">
       <r>  -25.9436    1.0000 </r>
       <r>  -25.9329    1.0000 </r>
       <r>  -21.3851    1.0000 </r>
       <r>  -19.0872    1.0000 </r>
       <r>  -19.0872    1.0000 </r>
       <r>  -19.0870    1.0000 </r>
       <r>  -19.0823    1.0000 </r>
       <r>  -19.0823    1.0000 </r>
       <r>  -10.1301    1.0000 </r>
       <r>  -10.1151    1.0000 </r>
       <r>  -10.1151    1.0000 </r>
       <r>  -10.0554    1.0000 </r>
       <r>  -10.0554    1.0000 </r>
       <r>  -10.0473    1.0000 </r>
       <r>   -8.2246    1.0000 </r>
       <r>   -8.1921    1.0000 </r>
       <r>   -8.1921    1.0000 </r>
       <r>   -6.9748    1.0000 </r>
       <r>    0.9712    1.0000 </r>
       <r>    1.5898    1.0000 </r>
       <r>    1.5898    1.0000 </r>
       <r>    3.3207    0.0000 </r>
       <r>    4.2854    0.0000 </r>
       <r>    4.2854    0.0000 </r>
       <r>    4.2986    0.0000 </r>
      </set>
      <set comment="kpoint 4">
       <r>  -25.9411    1.0000 </r>
       <r>  -25.9353    1.0000 </r>
       <r>  -21.3856    1.0000 </r>
       <r>  -19.0871    1.0000 </r>
       <r>  -19.0871    1.0000 </r>
       <r>  -19.0869    1.0000 </r>
       <r>  -19.0823    1.0000 </r>
       <r>  -19.0823    1.0000 </r>
       <r>  -10.1271    1.0000 </r>
       <r>  -10.1081    1.0000 </r>
       <r>  -10.1081    1.0000 </r>
       <r>  -10.0679    1.0000 </r>
       <r>  -10.0679    1.0000 </r>
       <r>  -10.0630    1.0000 </r>
       <r>   -8.2290    1.0000 </r>
       <r>   -8.1850    1.0000 </r>
       <r>   -8.1849    1.0000 </r>
       <r>   -6.9388    1.0000 </r>
       <r>    0.8031    1.0000 </r>
       <r>    1.5231    1.0000 </r>
       <r>    1.5231    1.0000 </r>
       <r>    3.7627    0.0000 </r>
       <r>    4.6473    0.0000 </r>
       <r>    4.6581    0.0000 </r>
       <r>    4.6581    0.0000 </r>
      </set>
      <set comment="kpoint 5">
       <r>  -25.9382    1.0000 </r>
       <r>  -25.9381    1.0000 </r>
       <r>  -21.3858    1.0000 </r>
       <r>  -19.0871    1.0000 </r>
       <r>  -19.0871    1.0000 </r>
       <r>  -19.0869    1.0000 </r>
       <r>  -19.0823    1.0000 </r>
       <r>  -19.0823    1.0000 </r>
       <r>  -10.1234    1.0000 </r>
       <r>  -10.1032    1.0000 </r>
       <r>  -10.1032    1.0000 </r>
       <r>  -10.0750    1.0000 </r>
       <r>  -10.0750    1.0000 </r>
       <r>  -10.0723    1.0000 </r>
       <r>   -8.2288    1.0000 </r>
       <r>   -8.1820    1.0000 </r>
       <r>   -8.1820    1.0000 </r>
       <r>   -6.9261    1.0000 </r>
       <r>    0.7496    1.0000 </r>
       <r>    1.4997    1.0000 </r>
       <r>    1.4998    1.0000 </r>
       <r>    3.9914    0.0000 </r>
       <r>    4.6369    0.0000 </r>
       <r>    4.7095    0.0000 </r>
       <r>    4.7095    0.0000 </r>
      </set>
      <set comment="kpoint 6">
       <r>  -25.9452    1.0000 </r>
       <r>  -25.9315    1.0000 </r>
       <r>  -21.3847    1.0000 </r>
       <r>  -19.0872    1.0000 </r>
       <r>  -19.0872    1.0000 </r>
       <r>  -19.0871    1.0000 </r>
       <r>  -19.0823    1.0000 </r>
       <r>  -19.0823    1.0000 </r>
       <r>  -10.1317    1.0000 </r>
       <r>  -10.1317    1.0000 </r>
       <r>  -10.1025    1.0000 </r>
       <r>  -10.0616    1.0000 </r>
       <r>  -10.0356    1.0000 </r>
       <r>  -10.0356    1.0000 </r>
       <r>   -8.2180    1.0000 </r>
       <r>   -8.1962    1.0000 </r>
       <r>   -8.1962    1.0000 </r>
       <r>   -7.0141    1.0000 </r>
       <r>    1.1801    1.0000 </r>
       <r>    1.7321    1.0000 </r>
       <r>    1.7321    1.0000 </r>
       <r>    2.6113    0.0000 </r>
       <r>    3.7659    0.0000 </r>
       <r>    4.0376    0.0000 </r>
       <r>    4.2909    0.0000 </r>
      </set>
      <set comment="kpoint 7">
       <r>  -25.9439    1.0000 </r>
       <r>  -25.9327    1.0000 </r>
       <r>  -21.3851    1.0000 </r>
       <r>  -19.0872    1.0000 </r>
       <r>  -19.0872    1.0000 </r>
       <r>  -19.0871    1.0000 </r>
       <r>  -19.0824    1.0000 </r>
       <r>  -19.0823    1.0000 </r>
       <r>  -10.1408    1.0000 </r>
       <r>  -10.1385    1.0000 </r>
       <r>  -10.0868    1.0000 </r>
       <r>  -10.0811    1.0000 </r>
       <r>  -10.0344    1.0000 </r>
       <r>  -10.0340    1.0000 </r>
       <r>   -8.2294    1.0000 </r>
       <r>   -8.1911    1.0000 </r>
       <r>   -8.1891    1.0000 </r>
       <r>   -6.9798    1.0000 </r>
       <r>    0.9588    1.0000 </r>
       <r>    1.6445    1.0000 </r>
       <r>    1.6983    1.0000 </r>
       <r>    3.1540    0.0000 </r>
       <r>    4.0246    0.0000 </r>
       <r>    4.0591    0.0000 </r>
       <r>    4.4681    0.0000 </r>
      </set>
      <set comment="kpoint 8">
       <r>  -25.9417    1.0000 </r>
       <r>  -25.9346    1.0000 </r>
       <r>  -21.3855    1.0000 </r>
       <r>  -19.0871    1.0000 </r>
       <r>  -19.0871    1.0000 </r>
       <r>  -19.0870    1.0000 </r>
       <r>  -19.0823    1.0000 </r>
       <r>  -19.0823    1.0000 </r>
       <r>  -10.1445    1.0000 </r>
       <r>  -10.1373    1.0000 </r>
       <r>  -10.1043    1.0000 </r>
       <r>  -10.0669    1.0000 </r>
       <r>  -10.0443    1.0000 </r>
       <r>  -10.0410    1.0000 </r>
       <r>   -8.2301    1.0000 </r>
       <r>   -8.1874    1.0000 </r>
       <r>   -8.1821    1.0000 </r>
       <r>   -6.9463    1.0000 </r>
       <r>    0.8540    1.0000 </r>
       <r>    1.5114    1.0000 </r>
       <r>    1.6165    1.0000 </r>
       <r>    3.6486    0.0000 </r>
       <r>    4.2312    0.0000 </r>
       <r>    4.4774    0.0000 </r>
       <r>    4.6840    0.0000 </r>
      </set>
      <set comment="kpoint 9">
       <r>  -25.9391    1.0000 </r>
       <r>  -25.9372    1.0000 </r>
       <r>  -21.3858    1.0000 </r>
       <r>  -19.0871    1.0000 </r>
       <r>  -19.0871    1.0000 </r>
       <r>  -19.0869    1.0000 </r>
       <r>  -19.0823    1.0000 </r>
       <r>  -19.0823    1.0000 </r>
       <r>  -10.1490    1.0000 </r>
       <r>  -10.1271    1.0000 </r>
       <r>  -10.1112    1.0000 </r>
       <r>  -10.0647    1.0000 </r>
       <r>  -10.0534    1.0000 </r>
       <r>  -10.0478    1.0000 </r>
       <r>   -8.2242    1.0000 </r>
       <r>   -8.1862    1.0000 </r>
       <r>   -8.1792    1.0000 </r>
       <r>   -6.9297    1.0000 </r>
       <r>    0.8254    1.0000 </r>
       <r>    1.4488    1.0000 </r>
       <r>    1.5406    1.0000 </r>
       <r>    3.9225    0.0000 </r>
       <r>    4.4738    0.0000 </r>
       <r>    4.6886    0.0000 </r>
       <r>    4.7255    0.0000 </r>
      </set>
      <set comment="kpoint 10">
       <r>  -25.9399    1.0000 </r>
       <r>  -25.9364    1.0000 </r>
       <r>  -21.3858    1.0000 </r>
       <r>  -19.0871    1.0000 </r>
       <r>  -19.0871    1.0000 </r>
       <r>  -19.0869    1.0000 </r>
       <r>  -19.0824    1.0000 </r>
       <r>  -19.0823    1.0000 </r>
       <r>  -10.1537    1.0000 </r>
       <r>  -10.1094    1.0000 </r>
       <r>  -10.1064    1.0000 </r>
       <r>  -10.0785    1.0000 </r>
       <r>  -10.0687    1.0000 </r>
       <r>  -10.0335    1.0000 </r>
       <r>   -8.2233    1.0000 </r>
       <r>   -8.1862    1.0000 </r>
       <r>   -8.1822    1.0000 </r>
       <r>   -6.9329    1.0000 </r>
       <r>    0.8358    1.0000 </r>
       <r>    1.4946    1.0000 </r>
       <r>    1.4993    1.0000 </r>
       <r>    3.8882    0.0000 </r>
       <r>    4.4212    0.0000 </r>
       <r>    4.6487    0.0000 </r>
       <r>    4.7039    0.0000 </r>
      </set>
      <set comment="kpoint 11">
       <r>  -25.9425    1.0000 </r>
       <r>  -25.9340    1.0000 </r>
       <r>  -21.3854    1.0000 </r>
       <r>  -19.0872    1.0000 </r>
       <r>  -19.0871    1.0000 </r>
       <r>  -19.0870    1.0000 </r>
       <r>  -19.0824    1.0000 </r>
       <r>  -19.0823    1.0000 </r>
       <r>  -10.1509    1.0000 </r>
       <r>  -10.1132    1.0000 </r>
       <r>  -10.0919    1.0000 </r>
       <r>  -10.0806    1.0000 </r>
       <r>  -10.0684    1.0000 </r>
       <r>  -10.0263    1.0000 </r>
       <r>   -8.2261    1.0000 </r>
       <r>   -8.1893    1.0000 </r>
       <r>   -8.1878    1.0000 </r>
       <r>   -6.9557    1.0000 </r>
       <r>    0.8969    1.0000 </r>
       <r>    1.5100    1.0000 </r>
       <r>    1.6195    1.0000 </r>
       <r>    3.5515    0.0000 </r>
       <r>    4.2087    0.0000 </r>
       <r>    4.3877    0.0000 </r>
       <r>    4.5869    0.0000 </r>
      </set>
      <set comment="kpoint 12">
       <r>  -25.9444    1.0000 </r>
       <r>  -25.9322    1.0000 </r>
       <r>  -21.3849    1.0000 </r>
       <r>  -19.0872    1.0000 </r>
       <r>  -19.0872    1.0000 </r>
       <r>  -19.0871    1.0000 </r>
       <r>  -19.0823    1.0000 </r>
       <r>  -19.0823    1.0000 </r>
       <r>  -10.1395    1.0000 </r>
       <r>  -10.1201    1.0000 </r>
       <r>  -10.1042    1.0000 </r>
       <r>  -10.0629    1.0000 </r>
       <r>  -10.0522    1.0000 </r>
       <r>  -10.0302    1.0000 </r>
       <r>   -8.2213    1.0000 </r>
       <r>   -8.1964    1.0000 </r>
       <r>   -8.1928    1.0000 </r>
       <r>   -6.9922    1.0000 </r>
       <r>    1.0607    1.0000 </r>
       <r>    1.5782    1.0000 </r>
       <r>    1.7168    1.0000 </r>
       <r>    3.0089    0.0000 </r>
       <r>    4.0094    0.0000 </r>
       <r>    4.2141    0.0000 </r>
       <r>    4.2428    0.0000 </r>
      </set>
      <set comment="kpoint 13">
       <r>  -25.9432    1.0000 </r>
       <r>  -25.9332    1.0000 </r>
       <r>  -21.3853    1.0000 </r>
       <r>  -19.0871    1.0000 </r>
       <r>  -19.0871    1.0000 </r>
       <r>  -19.0870    1.0000 </r>
       <r>  -19.0823    1.0000 </r>
       <r>  -19.0823    1.0000 </r>
       <r>  -10.1557    1.0000 </r>
       <r>  -10.1557    1.0000 </r>
       <r>  -10.1095    1.0000 </r>
       <r>  -10.0578    1.0000 </r>
       <r>  -10.0226    1.0000 </r>
       <r>  -10.0226    1.0000 </r>
       <r>   -8.2428    1.0000 </r>
       <r>   -8.1821    1.0000 </r>
       <r>   -8.1821    1.0000 </r>
       <r>   -6.9658    1.0000 </r>
       <r>    0.8545    1.0000 </r>
       <r>    1.7573    1.0000 </r>
       <r>    1.7573    1.0000 </r>
       <r>    3.2647    0.0000 </r>
       <r>    3.7050    0.0000 </r>
       <r>    4.0619    0.0000 </r>
       <r>    4.7325    0.0000 </r>
      </set>
      <set comment="kpoint 14">
       <r>  -25.9418    1.0000 </r>
       <r>  -25.9345    1.0000 </r>
       <r>  -21.3857    1.0000 </r>
       <r>  -19.0871    1.0000 </r>
       <r>  -19.0871    1.0000 </r>
       <r>  -19.0869    1.0000 </r>
       <r>  -19.0823    1.0000 </r>
       <r>  -19.0823    1.0000 </r>
       <r>  -10.1674    1.0000 </r>
       <r>  -10.1628    1.0000 </r>
       <r>  -10.1303    1.0000 </r>
       <r>  -10.0356    1.0000 </r>
       <r>  -10.0233    1.0000 </r>
       <r>  -10.0208    1.0000 </r>
       <r>   -8.2431    1.0000 </r>
       <r>   -8.1780    1.0000 </r>
       <r>   -8.1753    1.0000 </r>
       <r>   -6.9476    1.0000 </r>
       <r>    0.8515    1.0000 </r>
       <r>    1.6539    1.0000 </r>
       <r>    1.7266    1.0000 </r>
       <r>    3.5261    0.0000 </r>
       <r>    3.7368    0.0000 </r>
       <r>    4.3833    0.0000 </r>
       <r>    4.6227    0.0000 </r>
      </set>
      <set comment="kpoint 15">
       <r>  -25.9398    1.0000 </r>
       <r>  -25.9363    1.0000 </r>
       <r>  -21.3860    1.0000 </r>
       <r>  -19.0871    1.0000 </r>
       <r>  -19.0870    1.0000 </r>
       <r>  -19.0869    1.0000 </r>
       <r>  -19.0823    1.0000 </r>
       <r>  -19.0823    1.0000 </r>
       <r>  -10.1819    1.0000 </r>
       <r>  -10.1575    1.0000 </r>
       <r>  -10.1284    1.0000 </r>
       <r>  -10.0412    1.0000 </r>
       <r>  -10.0283    1.0000 </r>
       <r>  -10.0177    1.0000 </r>
       <r>   -8.2286    1.0000 </r>
       <r>   -8.1825    1.0000 </r>
       <r>   -8.1725    1.0000 </r>
       <r>   -6.9365    1.0000 </r>
       <r>    0.9522    1.0000 </r>
       <r>    1.4375    1.0000 </r>
       <r>    1.6414    1.0000 </r>
       <r>    3.6661    0.0000 </r>
       <r>    4.1500    0.0000 </r>
       <r>    4.5042    0.0000 </r>
       <r>    4.6952    0.0000 </r>
      </set>
      <set comment="kpoint 16">
       <r>  -25.9385    1.0000 </r>
       <r>  -25.9377    1.0000 </r>
       <r>  -21.3860    1.0000 </r>
       <r>  -19.0871    1.0000 </r>
       <r>  -19.0870    1.0000 </r>
       <r>  -19.0869    1.0000 </r>
       <r>  -19.0823    1.0000 </r>
       <r>  -19.0823    1.0000 </r>
       <r>  -10.1866    1.0000 </r>
       <r>  -10.1401    1.0000 </r>
       <r>  -10.1119    1.0000 </r>
       <r>  -10.0678    1.0000 </r>
       <r>  -10.0433    1.0000 </r>
       <r>  -10.0085    1.0000 </r>
       <r>   -8.2108    1.0000 </r>
       <r>   -8.1945    1.0000 </r>
       <r>   -8.1754    1.0000 </r>
       <r>   -6.9337    1.0000 </r>
       <r>    1.0209    1.0000 </r>
       <r>    1.3347    1.0000 </r>
       <r>    1.5523    1.0000 </r>
       <r>    3.9855    0.0000 </r>
       <r>    4.0409    0.0000 </r>
       <r>    4.6725    0.0000 </r>
       <r>    4.7366    0.0000 </r>
      </set>
      <set comment="kpoint 17">
       <r>  -25.9406    1.0000 </r>
       <r>  -25.9356    1.0000 </r>
       <r>  -21.3858    1.0000 </r>
       <r>  -19.0871    1.0000 </r>
       <r>  -19.0870    1.0000 </r>
       <r>  -19.0870    1.0000 </r>
       <r>  -19.0824    1.0000 </r>
       <r>  -19.0823    1.0000 </r>
       <r>  -10.1745    1.0000 </r>
       <r>  -10.1140    1.0000 </r>
       <r>  -10.0948    1.0000 </r>
       <r>  -10.0904    1.0000 </r>
       <r>  -10.0639    1.0000 </r>
       <r>  -10.0105    1.0000 </r>
       <r>   -8.2160    1.0000 </r>
       <r>   -8.1921    1.0000 </r>
       <r>   -8.1824    1.0000 </r>
       <r>   -6.9397    1.0000 </r>
       <r>    0.9316    1.0000 </r>
       <r>    1.4868    1.0000 </r>
       <r>    1.4989    1.0000 </r>
       <r>    3.8494    0.0000 </r>
       <r>    4.2787    0.0000 </r>
       <r>    4.3190    0.0000 </r>
       <r>    4.5997    0.0000 </r>
      </set>
      <set comment="kpoint 18">
       <r>  -25.9413    1.0000 </r>
       <r>  -25.9349    1.0000 </r>
       <r>  -21.3860    1.0000 </r>
       <r>  -19.0871    1.0000 </r>
       <r>  -19.0871    1.0000 </r>
       <r>  -19.0869    1.0000 </r>
       <r>  -19.0823    1.0000 </r>
       <r>  -19.0823    1.0000 </r>
       <r>  -10.1780    1.0000 </r>
       <r>  -10.1780    1.0000 </r>
       <r>  -10.1573    1.0000 </r>
       <r>  -10.0123    1.0000 </r>
       <r>  -10.0109    1.0000 </r>
       <r>  -10.0109    1.0000 </r>
       <r>   -8.2515    1.0000 </r>
       <r>   -8.1685    1.0000 </r>
       <r>   -8.1685    1.0000 </r>
       <r>   -6.9447    1.0000 </r>
       <r>    0.8729    1.0000 </r>
       <r>    1.7796    0.9996 </r>
       <r>    1.7796    0.9996 </r>
       <r>    3.2299    0.0000 </r>
       <r>    3.6880    0.0000 </r>
       <r>    4.4570    0.0000 </r>
       <r>    4.5499    0.0000 </r>
      </set>
      <set comment="kpoint 19">
       <r>  -25.9403    1.0000 </r>
       <r>  -25.9358    1.0000 </r>
       <r>  -21.3862    1.0000 </r>
       <r>  -19.0871    1.0000 </r>
       <r>  -19.0870    1.0000 </r>
       <r>  -19.0869    1.0000 </r>
       <r>  -19.0823    1.0000 </r>
       <r>  -19.0823    1.0000 </r>
       <r>  -10.1943    1.0000 </r>
       <r>  -10.1791    1.0000 </r>
       <r>  -10.1551    1.0000 </r>
       <r>  -10.0164    1.0000 </r>
       <r>  -10.0118    1.0000 </r>
       <r>   -9.9993    1.0000 </r>
       <r>   -8.2441    1.0000 </r>
       <r>   -8.1690    1.0000 </r>
       <r>   -8.1658    1.0000 </r>
       <r>   -6.9415    1.0000 </r>
       <r>    0.9740    1.0000 </r>
       <r>    1.6369    1.0000 </r>
       <r>    1.7447    1.0000 </r>
       <r>    3.2793    0.0000 </r>
       <r>    3.7046    0.0000 </r>
       <r>    4.5169    0.0000 </r>
       <r>    4.8495    0.0000 </r>
      </set>
      <set comment="kpoint 20">
       <r>  -25.9390    1.0000 </r>
       <r>  -25.9370    1.0000 </r>
       <r>  -21.3862    1.0000 </r>
       <r>  -19.0871    1.0000 </r>
       <r>  -19.0870    1.0000 </r>
       <r>  -19.0869    1.0000 </r>
       <r>  -19.0823    1.0000 </r>
       <r>  -19.0823    1.0000 </r>
       <r>  -10.2020    1.0000 </r>
       <r>  -10.1655    1.0000 </r>
       <r>  -10.1337    1.0000 </r>
       <r>  -10.0390    1.0000 </r>
       <r>  -10.0232    1.0000 </r>
       <r>   -9.9973    1.0000 </r>
       <r>   -8.2256    1.0000 </r>
       <r>   -8.1808    1.0000 </r>
       <r>   -8.1686    1.0000 </r>
       <r>   -6.9377    1.0000 </r>
       <r>    1.1189    1.0000 </r>
       <r>    1.3404    1.0000 </r>
       <r>    1.6512    1.0000 </r>
       <r>    3.5991    0.0000 </r>
       <r>    3.8569    0.0000 </r>
       <r>    4.7459    0.0000 </r>
       <r>    4.7880    0.0000 </r>
      </set>
      <set comment="kpoint 21">
       <r>  -25.9405    1.0000 </r>
       <r>  -25.9356    1.0000 </r>
       <r>  -21.3863    1.0000 </r>
       <r>  -19.0871    1.0000 </r>
       <r>  -19.0871    1.0000 </r>
       <r>  -19.0868    1.0000 </r>
       <r>  -19.0823    1.0000 </r>
       <r>  -19.0823    1.0000 </r>
       <r>  -10.1869    1.0000 </r>
       <r>  -10.1869    1.0000 </r>
       <r>  -10.1771    1.0000 </r>
       <r>  -10.0062    1.0000 </r>
       <r>  -10.0062    1.0000 </r>
       <r>   -9.9933    1.0000 </r>
       <r>   -8.2509    1.0000 </r>
       <r>   -8.1631    1.0000 </r>
       <r>   -8.1631    1.0000 </r>
       <r>   -6.9434    1.0000 </r>
       <r>    0.9712    1.0000 </r>
       <r>    1.7880    0.9991 </r>
       <r>    1.7880    0.9991 </r>
       <r>    3.0541    0.0000 </r>
       <r>    3.5434    0.0000 </r>
       <r>    4.5188    0.0000 </r>
       <r>    5.1134    0.0000 </r>
      </set>
      <set comment="kpoint 22">
       <r>  -25.9425    1.0000 </r>
       <r>  -25.9339    1.0000 </r>
       <r>  -21.3854    1.0000 </r>
       <r>  -19.0871    1.0000 </r>
       <r>  -19.0871    1.0000 </r>
       <r>  -19.0870    1.0000 </r>
       <r>  -19.0823    1.0000 </r>
       <r>  -19.0823    1.0000 </r>
       <r>  -10.1612    1.0000 </r>
       <r>  -10.1353    1.0000 </r>
       <r>  -10.1068    1.0000 </r>
       <r>  -10.0627    1.0000 </r>
       <r>  -10.0472    1.0000 </r>
       <r>  -10.0188    1.0000 </r>
       <r>   -8.2335    1.0000 </r>
       <r>   -8.1848    1.0000 </r>
       <r>   -8.1840    1.0000 </r>
       <r>   -6.9557    1.0000 </r>
       <r>    0.8778    1.0000 </r>
       <r>    1.5885    1.0000 </r>
       <r>    1.6701    1.0000 </r>
       <r>    3.5326    0.0000 </r>
       <r>    3.8891    0.0000 </r>
       <r>    4.2945    0.0000 </r>
       <r>    4.7328    0.0000 </r>
      </set>
      <set comment="kpoint 23">
       <r>  -25.9404    1.0000 </r>
       <r>  -25.9358    1.0000 </r>
       <r>  -21.3858    1.0000 </r>
       <r>  -19.0871    1.0000 </r>
       <r>  -19.0871    1.0000 </r>
       <r>  -19.0869    1.0000 </r>
       <r>  -19.0823    1.0000 </r>
       <r>  -19.0823    1.0000 </r>
       <r>  -10.1771    1.0000 </r>
       <r>  -10.1287    1.0000 </r>
       <r>  -10.1181    1.0000 </r>
       <r>  -10.0680    1.0000 </r>
       <r>  -10.0422    1.0000 </r>
       <r>  -10.0160    1.0000 </r>
       <r>   -8.2240    1.0000 </r>
       <r>   -8.1878    1.0000 </r>
       <r>   -8.1773    1.0000 </r>
       <r>   -6.9381    1.0000 </r>
       <r>    0.9119    1.0000 </r>
       <r>    1.4769    1.0000 </r>
       <r>    1.5694    1.0000 </r>
       <r>    3.8144    0.0000 </r>
       <r>    4.1610    0.0000 </r>
       <r>    4.3960    0.0000 </r>
       <r>    4.7976    0.0000 </r>
      </set>
      <set comment="kpoint 24">
       <r>  -25.9381    1.0000 </r>
       <r>  -25.9381    1.0000 </r>
       <r>  -21.3860    1.0000 </r>
       <r>  -19.0871    1.0000 </r>
       <r>  -19.0870    1.0000 </r>
       <r>  -19.0869    1.0000 </r>
       <r>  -19.0823    1.0000 </r>
       <r>  -19.0823    1.0000 </r>
       <r>  -10.1835    1.0000 </r>
       <r>  -10.1337    1.0000 </r>
       <r>  -10.1048    1.0000 </r>
       <r>  -10.0851    1.0000 </r>
       <r>  -10.0280    1.0000 </r>
       <r>  -10.0225    1.0000 </r>
       <r>   -8.2147    1.0000 </r>
       <r>   -8.1932    1.0000 </r>
       <r>   -8.1744    1.0000 </r>
       <r>   -6.9323    1.0000 </r>
       <r>    0.9598    1.0000 </r>
       <r>    1.3791    1.0000 </r>
       <r>    1.5491    1.0000 </r>
       <r>    4.0234    0.0000 </r>
       <r>    4.1015    0.0000 </r>
       <r>    4.6141    0.0000 </r>
       <r>    4.7736    0.0000 </r>
      </set>
      <set comment="kpoint 25">
       <r>  -25.9406    1.0000 </r>
       <r>  -25.9356    1.0000 </r>
       <r>  -21.3860    1.0000 </r>
       <r>  -19.0871    1.0000 </r>
       <r>  -19.0870    1.0000 </r>
       <r>  -19.0869    1.0000 </r>
       <r>  -19.0823    1.0000 </r>
       <r>  -19.0823    1.0000 </r>
       <r>  -10.1931    1.0000 </r>
       <r>  -10.1542    1.0000 </r>
       <r>  -10.1431    1.0000 </r>
       <r>  -10.0381    1.0000 </r>
       <r>  -10.0156    1.0000 </r>
       <r>  -10.0081    1.0000 </r>
       <r>   -8.2377    1.0000 </r>
       <r>   -8.1775    1.0000 </r>
       <r>   -8.1695    1.0000 </r>
       <r>   -6.9407    1.0000 </r>
       <r>    0.9338    1.0000 </r>
       <r>    1.6077    1.0000 </r>
       <r>    1.6442    1.0000 </r>
       <r>    3.5521    0.0000 </r>
       <r>    3.8468    0.0000 </r>
       <r>    4.4439    0.0000 </r>
       <r>    4.6922    0.0000 </r>
      </set>
      <set comment="kpoint 26">
       <r>  -25.9390    1.0000 </r>
       <r>  -25.9371    1.0000 </r>
       <r>  -21.3862    1.0000 </r>
       <r>  -19.0871    1.0000 </r>
       <r>  -19.0870    1.0000 </r>
       <r>  -19.0869    1.0000 </r>
       <r>  -19.0823    1.0000 </r>
       <r>  -19.0823    1.0000 </r>
       <r>  -10.2088    1.0000 </r>
       <r>  -10.1468    1.0000 </r>
       <r>  -10.1274    1.0000 </r>
       <r>  -10.0645    1.0000 </r>
       <r>  -10.0097    1.0000 </r>
       <r>  -10.0030    1.0000 </r>
       <r>   -8.2203    1.0000 </r>
       <r>   -8.1886    1.0000 </r>
       <r>   -8.1671    1.0000 </r>
       <r>   -6.9371    1.0000 </r>
       <r>    1.0967    1.0000 </r>
       <r>    1.3694    1.0000 </r>
       <r>    1.5950    1.0000 </r>
       <r>    3.7547    0.0000 </r>
       <r>    3.9253    0.0000 </r>
       <r>    4.5063    0.0000 </r>
       <r>    4.6987    0.0000 </r>
      </set>
      <set comment="kpoint 27">
       <r>  -25.9388    1.0000 </r>
       <r>  -25.9373    1.0000 </r>
       <r>  -21.3861    1.0000 </r>
       <r>  -19.0871    1.0000 </r>
       <r>  -19.0870    1.0000 </r>
       <r>  -19.0869    1.0000 </r>
       <r>  -19.0823    1.0000 </r>
       <r>  -19.0823    1.0000 </r>
       <r>  -10.2030    1.0000 </r>
       <r>  -10.1387    1.0000 </r>
       <r>  -10.0977    1.0000 </r>
       <r>  -10.0953    1.0000 </r>
       <r>  -10.0219    1.0000 </r>
       <r>  -10.0027    1.0000 </r>
       <r>   -8.2069    1.0000 </r>
       <r>   -8.2005    1.0000 </r>
       <r>   -8.1706    1.0000 </r>
       <r>   -6.9358    1.0000 </r>
       <r>    1.0938    1.0000 </r>
       <r>    1.3244    1.0000 </r>
       <r>    1.5523    1.0000 </r>
       <r>    3.9035    0.0000 </r>
       <r>    4.1730    0.0000 </r>
       <r>    4.2475    0.0000 </r>
       <r>    4.8254    0.0000 </r>
      </set>
      <set comment="kpoint 28">
       <r>  -25.9398    1.0000 </r>
       <r>  -25.9363    1.0000 </r>
       <r>  -21.3863    1.0000 </r>
       <r>  -19.0871    1.0000 </r>
       <r>  -19.0870    1.0000 </r>
       <r>  -19.0869    1.0000 </r>
       <r>  -19.0823    1.0000 </r>
       <r>  -19.0823    1.0000 </r>
       <r>  -10.2101    1.0000 </r>
       <r>  -10.1618    1.0000 </r>
       <r>  -10.1539    1.0000 </r>
       <r>  -10.0342    1.0000 </r>
       <r>  -10.0044    1.0000 </r>
       <r>   -9.9951    1.0000 </r>
       <r>   -8.2367    1.0000 </r>
       <r>   -8.1747    1.0000 </r>
       <r>   -8.1635    1.0000 </r>
       <r>   -6.9405    1.0000 </r>
       <r>    1.0456    1.0000 </r>
       <r>    1.5764    1.0000 </r>
       <r>    1.6555    1.0000 </r>
       <r>    3.4291    0.0000 </r>
       <r>    3.6609    0.0000 </r>
       <r>    4.5920    0.0000 </r>
       <r>    4.8394    0.0000 </r>
      </set>
      <set comment="kpoint 29">
       <r>  -25.9380    1.0000 </r>
       <r>  -25.9380    1.0000 </r>
       <r>  -21.3862    1.0000 </r>
       <r>  -19.0870    1.0000 </r>
       <r>  -19.0869    1.0000 </r>
       <r>  -19.0869    1.0000 </r>
       <r>  -19.0823    1.0000 </r>
       <r>  -19.0823    1.0000 </r>
       <r>  -10.2215    1.0000 </r>
       <r>  -10.1426    1.0000 </r>
       <r>  -10.0995    1.0000 </r>
       <r>  -10.0995    1.0000 </r>
       <r>  -10.0009    1.0000 </r>
       <r>   -9.9986    1.0000 </r>
       <r>   -8.2044    1.0000 </r>
       <r>   -8.2044    1.0000 </r>
       <r>   -8.1639    1.0000 </r>
       <r>   -6.9376    1.0000 </r>
       <r>    1.2604    1.0000 </r>
       <r>    1.2605    1.0000 </r>
       <r>    1.5430    1.0000 </r>
       <r>    3.7479    0.0000 </r>
       <r>    4.1811    0.0000 </r>
       <r>    4.1811    0.0000 </r>
       <r>    4.6225    0.0000 </r>
      </set>
     </set>
    </set>
   </array>
  </eigenvalues>
  <separator name="orbital magnetization" >
   <v name="MAGDIPOLOUT">      0.00000000      0.00000000      0.00000000</v>
  </separator>
  <dos>
   <i name="efermi">      1.89818954 </i>
   <total>
    <array>
     <dimension dim="1">gridpoints</dimension>
     <dimension dim="2">spin</dimension>
     <field>energy</field>
     <field>total</field>
     <field>integrated</field>
     <set>
      <set comment="spin 1">
       <r>   -27.4990     0.0000     0.0000 </r>
       <r>   -27.3851     0.0000     0.0000 </r>
       <r>   -27.2712     0.0000     0.0000 </r>
       <r>   -27.1573     0.0000     0.0000 </r>
       <r>   -27.0435     0.0000     0.0000 </r>
       <r>   -26.9296     0.0000     0.0000 </r>
       <r>   -26.8157     0.0000     0.0000 </r>
       <r>   -26.7018     0.0000     0.0000 </r>
       <r>   -26.5879     0.0000     0.0000 </r>
       <r>   -26.4740     0.0000     0.0000 </r>
       <r>   -26.3601     0.0000     0.0000 </r>
       <r>   -26.2463     0.0000     0.0000 </r>
       <r>   -26.1324     0.0000     0.0000 </r>
       <r>   -26.0185     0.4136     0.0471 </r>
       <r>   -25.9046    28.6536     3.3103 </r>
       <r>   -25.7907     6.0555     3.9999 </r>
       <r>   -25.6768     0.0006     4.0000 </r>
       <r>   -25.5630     0.0000     4.0000 </r>
       <r>   -25.4491     0.0000     4.0000 </r>
       <r>   -25.3352     0.0000     4.0000 </r>
       <r>   -25.2213     0.0000     4.0000 </r>
       <r>   -25.1074     0.0000     4.0000 </r>
       <r>   -24.9935     0.0000     4.0000 </r>
       <r>   -24.8796     0.0000     4.0000 </r>
       <r>   -24.7658     0.0000     4.0000 </r>
       <r>   -24.6519     0.0000     4.0000 </r>
       <r>   -24.5380     0.0000     4.0000 </r>
       <r>   -24.4241     0.0000     4.0000 </r>
       <r>   -24.3102     0.0000     4.0000 </r>
       <r>   -24.1963     0.0000     4.0000 </r>
       <r>   -24.0825     0.0000     4.0000 </r>
       <r>   -23.9686     0.0000     4.0000 </r>
       <r>   -23.8547     0.0000     4.0000 </r>
       <r>   -23.7408     0.0000     4.0000 </r>
       <r>   -23.6269     0.0000     4.0000 </r>
       <r>   -23.5130     0.0000     4.0000 </r>
       <r>   -23.3992     0.0000     4.0000 </r>
       <r>   -23.2853     0.0000     4.0000 </r>
       <r>   -23.1714     0.0000     4.0000 </r>
       <r>   -23.0575     0.0000     4.0000 </r>
       <r>   -22.9436     0.0000     4.0000 </r>
       <r>   -22.8297     0.0000     4.0000 </r>
       <r>   -22.7158     0.0000     4.0000 </r>
       <r>   -22.6020     0.0000     4.0000 </r>
       <r>   -22.4881     0.0000     4.0000 </r>
       <r>   -22.3742     0.0000     4.0000 </r>
       <r>   -22.2603     0.0000     4.0000 </r>
       <r>   -22.1464     0.0000     4.0000 </r>
       <r>   -22.0325     0.0000     4.0000 </r>
       <r>   -21.9187     0.0000     4.0000 </r>
       <r>   -21.8048     0.0000     4.0000 </r>
       <r>   -21.6909     0.0000     4.0000 </r>
       <r>   -21.5770     0.0000     4.0000 </r>
       <r>   -21.4631     0.2522     4.0287 </r>
       <r>   -21.3492    14.6637     5.6987 </r>
       <r>   -21.2353     2.6456     6.0000 </r>
       <r>   -21.1215     0.0002     6.0000 </r>
       <r>   -21.0076     0.0000     6.0000 </r>
       <r>   -20.8937     0.0000     6.0000 </r>
       <r>   -20.7798     0.0000     6.0000 </r>
       <r>   -20.6659     0.0000     6.0000 </r>
       <r>   -20.5520     0.0000     6.0000 </r>
       <r>   -20.4382     0.0000     6.0000 </r>
       <r>   -20.3243     0.0000     6.0000 </r>
       <r>   -20.2104     0.0000     6.0000 </r>
       <r>   -20.0965     0.0000     6.0000 </r>
       <r>   -19.9826     0.0000     6.0000 </r>
       <r>   -19.8687     0.0000     6.0000 </r>
       <r>   -19.7548     0.0000     6.0000 </r>
       <r>   -19.6410     0.0000     6.0000 </r>
       <r>   -19.5271     0.0000     6.0000 </r>
       <r>   -19.4132     0.0000     6.0000 </r>
       <r>   -19.2993     0.0000     6.0000 </r>
       <r>   -19.1854     0.2042     6.0233 </r>
       <r>   -19.0715    56.8333    12.4957 </r>
       <r>   -18.9577    30.7568    15.9984 </r>
       <r>   -18.8438     0.0141    16.0000 </r>
       <r>   -18.7299     0.0000    16.0000 </r>
       <r>   -18.6160     0.0000    16.0000 </r>
       <r>   -18.5021     0.0000    16.0000 </r>
       <r>   -18.3882     0.0000    16.0000 </r>
       <r>   -18.2744     0.0000    16.0000 </r>
       <r>   -18.1605     0.0000    16.0000 </r>
       <r>   -18.0466     0.0000    16.0000 </r>
       <r>   -17.9327     0.0000    16.0000 </r>
       <r>   -17.8188     0.0000    16.0000 </r>
       <r>   -17.7049     0.0000    16.0000 </r>
       <r>   -17.5910     0.0000    16.0000 </r>
       <r>   -17.4772     0.0000    16.0000 </r>
       <r>   -17.3633     0.0000    16.0000 </r>
       <r>   -17.2494     0.0000    16.0000 </r>
       <r>   -17.1355     0.0000    16.0000 </r>
       <r>   -17.0216     0.0000    16.0000 </r>
       <r>   -16.9077     0.0000    16.0000 </r>
       <r>   -16.7939     0.0000    16.0000 </r>
       <r>   -16.6800     0.0000    16.0000 </r>
       <r>   -16.5661     0.0000    16.0000 </r>
       <r>   -16.4522     0.0000    16.0000 </r>
       <r>   -16.3383     0.0000    16.0000 </r>
       <r>   -16.2244     0.0000    16.0000 </r>
       <r>   -16.1105     0.0000    16.0000 </r>
       <r>   -15.9967     0.0000    16.0000 </r>
       <r>   -15.8828     0.0000    16.0000 </r>
       <r>   -15.7689     0.0000    16.0000 </r>
       <r>   -15.6550     0.0000    16.0000 </r>
       <r>   -15.5411     0.0000    16.0000 </r>
       <r>   -15.4272     0.0000    16.0000 </r>
       <r>   -15.3134     0.0000    16.0000 </r>
       <r>   -15.1995     0.0000    16.0000 </r>
       <r>   -15.0856     0.0000    16.0000 </r>
       <r>   -14.9717     0.0000    16.0000 </r>
       <r>   -14.8578     0.0000    16.0000 </r>
       <r>   -14.7439     0.0000    16.0000 </r>
       <r>   -14.6301     0.0000    16.0000 </r>
       <r>   -14.5162     0.0000    16.0000 </r>
       <r>   -14.4023     0.0000    16.0000 </r>
       <r>   -14.2884     0.0000    16.0000 </r>
       <r>   -14.1745     0.0000    16.0000 </r>
       <r>   -14.0606     0.0000    16.0000 </r>
       <r>   -13.9467     0.0000    16.0000 </r>
       <r>   -13.8329     0.0000    16.0000 </r>
       <r>   -13.7190     0.0000    16.0000 </r>
       <r>   -13.6051     0.0000    16.0000 </r>
       <r>   -13.4912     0.0000    16.0000 </r>
       <r>   -13.3773     0.0000    16.0000 </r>
       <r>   -13.2634     0.0000    16.0000 </r>
       <r>   -13.1496     0.0000    16.0000 </r>
       <r>   -13.0357     0.0000    16.0000 </r>
       <r>   -12.9218     0.0000    16.0000 </r>
       <r>   -12.8079     0.0000    16.0000 </r>
       <r>   -12.6940     0.0000    16.0000 </r>
       <r>   -12.5801     0.0000    16.0000 </r>
       <r>   -12.4662     0.0000    16.0000 </r>
       <r>   -12.3524     0.0000    16.0000 </r>
       <r>   -12.2385     0.0000    16.0000 </r>
       <r>   -12.1246     0.0000    16.0000 </r>
       <r>   -12.0107     0.0000    16.0000 </r>
       <r>   -11.8968     0.0000    16.0000 </r>
       <r>   -11.7829     0.0000    16.0000 </r>
       <r>   -11.6691     0.0000    16.0000 </r>
       <r>   -11.5552     0.0000    16.0000 </r>
       <r>   -11.4413     0.0000    16.0000 </r>
       <r>   -11.3274     0.0000    16.0000 </r>
       <r>   -11.2135     0.0000    16.0000 </r>
       <r>   -11.0996     0.0000    16.0000 </r>
       <r>   -10.9858     0.0000    16.0000 </r>
       <r>   -10.8719     0.0000    16.0000 </r>
       <r>   -10.7580     0.0000    16.0000 </r>
       <r>   -10.6441     0.0000    16.0000 </r>
       <r>   -10.5302     0.0000    16.0000 </r>
       <r>   -10.4163     0.0000    16.0000 </r>
       <r>   -10.3024     0.0175    16.0020 </r>
       <r>   -10.1886     9.0127    17.0284 </r>
       <r>   -10.0747    51.0043    22.8370 </r>
       <r>    -9.9608    43.5104    27.7922 </r>
       <r>    -9.8469     1.8250    28.0000 </r>
       <r>    -9.7330     0.0001    28.0000 </r>
       <r>    -9.6191     0.0000    28.0000 </r>
       <r>    -9.5053     0.0000    28.0000 </r>
       <r>    -9.3914     0.0000    28.0000 </r>
       <r>    -9.2775     0.0000    28.0000 </r>
       <r>    -9.1636     0.0000    28.0000 </r>
       <r>    -9.0497     0.0000    28.0000 </r>
       <r>    -8.9358     0.0000    28.0000 </r>
       <r>    -8.8219     0.0000    28.0000 </r>
       <r>    -8.7081     0.0000    28.0000 </r>
       <r>    -8.5942     0.0000    28.0000 </r>
       <r>    -8.4803     0.0000    28.0000 </r>
       <r>    -8.3664     0.0012    28.0001 </r>
       <r>    -8.2525     5.0723    28.5778 </r>
       <r>    -8.1386    43.2927    33.5082 </r>
       <r>    -8.0248     4.3184    34.0000 </r>
       <r>    -7.9109     0.0003    34.0000 </r>
       <r>    -7.7970     0.0000    34.0000 </r>
       <r>    -7.6831     0.0000    34.0000 </r>
       <r>    -7.5692     0.0000    34.0000 </r>
       <r>    -7.4553     0.0000    34.0000 </r>
       <r>    -7.3415     0.0000    34.0000 </r>
       <r>    -7.2276     0.0000    34.0000 </r>
       <r>    -7.1137     0.0026    34.0003 </r>
       <r>    -6.9998     1.6075    34.1834 </r>
       <r>    -6.8859    14.9097    35.8814 </r>
       <r>    -6.7720     1.0418    36.0000 </r>
       <r>    -6.6581     0.0000    36.0000 </r>
       <r>    -6.5443     0.0000    36.0000 </r>
       <r>    -6.4304     0.0000    36.0000 </r>
       <r>    -6.3165     0.0000    36.0000 </r>
       <r>    -6.2026     0.0000    36.0000 </r>
       <r>    -6.0887     0.0000    36.0000 </r>
       <r>    -5.9748     0.0000    36.0000 </r>
       <r>    -5.8610     0.0000    36.0000 </r>
       <r>    -5.7471     0.0000    36.0000 </r>
       <r>    -5.6332     0.0000    36.0000 </r>
       <r>    -5.5193     0.0000    36.0000 </r>
       <r>    -5.4054     0.0000    36.0000 </r>
       <r>    -5.2915     0.0000    36.0000 </r>
       <r>    -5.1776     0.0000    36.0000 </r>
       <r>    -5.0638     0.0000    36.0000 </r>
       <r>    -4.9499     0.0000    36.0000 </r>
       <r>    -4.8360     0.0000    36.0000 </r>
       <r>    -4.7221     0.0000    36.0000 </r>
       <r>    -4.6082     0.0000    36.0000 </r>
       <r>    -4.4943     0.0000    36.0000 </r>
       <r>    -4.3805     0.0000    36.0000 </r>
       <r>    -4.2666     0.0000    36.0000 </r>
       <r>    -4.1527     0.0000    36.0000 </r>
       <r>    -4.0388     0.0000    36.0000 </r>
       <r>    -3.9249     0.0000    36.0000 </r>
       <r>    -3.8110     0.0000    36.0000 </r>
       <r>    -3.6972     0.0000    36.0000 </r>
       <r>    -3.5833     0.0000    36.0000 </r>
       <r>    -3.4694     0.0000    36.0000 </r>
       <r>    -3.3555     0.0000    36.0000 </r>
       <r>    -3.2416     0.0000    36.0000 </r>
       <r>    -3.1277     0.0000    36.0000 </r>
       <r>    -3.0138     0.0000    36.0000 </r>
       <r>    -2.9000     0.0000    36.0000 </r>
       <r>    -2.7861     0.0000    36.0000 </r>
       <r>    -2.6722     0.0000    36.0000 </r>
       <r>    -2.5583     0.0000    36.0000 </r>
       <r>    -2.4444     0.0000    36.0000 </r>
       <r>    -2.3305     0.0000    36.0000 </r>
       <r>    -2.2167     0.0000    36.0000 </r>
       <r>    -2.1028     0.0000    36.0000 </r>
       <r>    -1.9889     0.0000    36.0000 </r>
       <r>    -1.8750     0.0000    36.0000 </r>
       <r>    -1.7611     0.0000    36.0000 </r>
       <r>    -1.6472     0.0000    36.0000 </r>
       <r>    -1.5333     0.0000    36.0000 </r>
       <r>    -1.4195     0.0000    36.0000 </r>
       <r>    -1.3056     0.0000    36.0000 </r>
       <r>    -1.1917     0.0000    36.0000 </r>
       <r>    -1.0778     0.0000    36.0000 </r>
       <r>    -0.9639     0.0000    36.0000 </r>
       <r>    -0.8500     0.0000    36.0000 </r>
       <r>    -0.7362     0.0000    36.0000 </r>
       <r>    -0.6223     0.0000    36.0000 </r>
       <r>    -0.5084     0.0000    36.0000 </r>
       <r>    -0.3945     0.0000    36.0000 </r>
       <r>    -0.2806     0.0000    36.0000 </r>
       <r>    -0.1667     0.0000    36.0000 </r>
       <r>    -0.0529     0.0000    36.0000 </r>
       <r>     0.0610     0.0000    36.0000 </r>
       <r>     0.1749     0.0000    36.0000 </r>
       <r>     0.2888     0.0000    36.0000 </r>
       <r>     0.4027     0.0000    36.0000 </r>
       <r>     0.5166     0.0000    36.0000 </r>
       <r>     0.6305     0.0001    36.0000 </r>
       <r>     0.7443     0.0888    36.0101 </r>
       <r>     0.8582     3.1835    36.3727 </r>
       <r>     0.9721     7.4240    37.2182 </r>
       <r>     1.0860     4.1271    37.6882 </r>
       <r>     1.1999     2.1749    37.9358 </r>
       <r>     1.3138     1.3782    38.0928 </r>
       <r>     1.4276     4.5009    38.6054 </r>
       <r>     1.5415     9.0582    39.6370 </r>
       <r>     1.6554    13.1307    41.1324 </r>
       <r>     1.7693     6.6548    41.8902 </r>
       <r>     1.8832     0.9624    41.9998 </r>
       <r>     1.9971     0.0252    42.0027 </r>
       <r>     2.1110     0.0105    42.0039 </r>
       <r>     2.2248     0.0000    42.0039 </r>
       <r>     2.3387     0.0000    42.0039 </r>
       <r>     2.4526     0.0000    42.0039 </r>
       <r>     2.5665     0.1101    42.0165 </r>
       <r>     2.6804     0.3641    42.0579 </r>
       <r>     2.7943     0.0060    42.0586 </r>
       <r>     2.9081     0.0009    42.0587 </r>
       <r>     3.0220     0.2835    42.0910 </r>
       <r>     3.1359     0.4805    42.1457 </r>
       <r>     3.2498     0.9582    42.2548 </r>
       <r>     3.3637     1.0988    42.3800 </r>
       <r>     3.4776     0.5537    42.4430 </r>
       <r>     3.5914     3.2293    42.8108 </r>
       <r>     3.7053     3.3803    43.1957 </r>
       <r>     3.8192     4.9309    43.7573 </r>
       <r>     3.9331     6.1773    44.4608 </r>
       <r>     4.0470     4.7795    45.0051 </r>
       <r>     4.1609     4.2283    45.4866 </r>
       <r>     4.2748     5.5802    46.1221 </r>
       <r>     4.3886     4.0511    46.5835 </r>
       <r>     4.5025     7.0017    47.3809 </r>
       <r>     4.6164     5.2717    47.9813 </r>
       <r>     4.7303    10.1299    49.1349 </r>
       <r>     4.8442     6.4042    49.8642 </r>
       <r>     4.9581     1.0882    49.9882 </r>
       <r>     5.0719     0.0135    49.9897 </r>
       <r>     5.1858     0.0884    49.9998 </r>
       <r>     5.2997     0.0021    50.0000 </r>
       <r>     5.4136     0.0000    50.0000 </r>
       <r>     5.5275     0.0000    50.0000 </r>
       <r>     5.6414     0.0000    50.0000 </r>
       <r>     5.7553     0.0000    50.0000 </r>
       <r>     5.8691     0.0000    50.0000 </r>
       <r>     5.9830     0.0000    50.0000 </r>
       <r>     6.0969     0.0000    50.0000 </r>
       <r>     6.2108     0.0000    50.0000 </r>
       <r>     6.3247     0.0000    50.0000 </r>
       <r>     6.4386     0.0000    50.0000 </r>
       <r>     6.5524     0.0000    50.0000 </r>
       <r>     6.6663     0.0000    50.0000 </r>
      </set>
     </set>
    </array>
   </total>
  </dos>
 </calculation>
 <structure name="finalpos" >
  <crystal>
   <varray name="basis" >
    <v>       0.00000000       4.61036018       4.61036018 </v>
    <v>       4.61036018       0.00000000       4.61036018 </v>
    <v>       4.61036018       4.61036018      -0.00000000 </v>
   </varray>
   <i name="volume">    195.99029335 </i>
   <varray name="rec_basis" >
    <v>      -0.10845140       0.10845140       0.10845140 </v>
    <v>       0.10845140      -0.10845140       0.10845140 </v>
    <v>       0.10845140       0.10845140      -0.10845140 </v>
   </varray>
  </crystal>
  <varray name="positions" >
   <v>       0.25000033       0.25000033       0.25000033 </v>
   <v>       0.74999989       0.74999989       0.74999989 </v>
   <v>       0.00000000      -0.00000000      -0.00000000 </v>
   <v>       0.49999956       0.49999956       0.49999956 </v>
  </varray>
 </structure>
</modeling>
