unknown system                          
           1
     0.000000    4.568594    4.568594
     4.568594    0.000000    4.568594
     4.568594    4.568594    0.000000
   Bi   Cs   Rb
   1   1   2
Direct configuration=     1
   0.25000033  0.25000033  0.25000033
   0.74999989  0.74999989  0.74999989
   0.00000000  0.00000000  0.00000000
   0.49999956  0.49999956  0.49999956
unknown system                          
           1
     0.000000    4.587178    4.587178
     4.587178    0.000000    4.587178
     4.587178    4.587178   -0.000000
   Bi   Cs   Rb
   1   1   2
Direct configuration=     2
   0.25000033  0.25000033  0.25000033
   0.74999989  0.74999989  0.74999989
   0.00000000 -0.00000000 -0.00000000
   0.49999956  0.49999956  0.49999956
unknown system                          
           1
     0.000000    4.608451    4.608451
     4.608451    0.000000    4.608451
     4.608451    4.608451   -0.000000
   Bi   Cs   Rb
   1   1   2
Direct configuration=     3
   0.25000033  0.25000033  0.25000033
   0.74999989  0.74999989  0.74999989
   0.00000000 -0.00000000 -0.00000000
   0.49999956  0.49999956  0.49999956
unknown system                          
           1
     0.000000    4.610360    4.610360
     4.610360    0.000000    4.610360
     4.610360    4.610360   -0.000000
   Bi   Cs   Rb
   1   1   2
Direct configuration=     4
   0.25000033  0.25000033  0.25000033
   0.74999989  0.74999989  0.74999989
   0.00000000 -0.00000000 -0.00000000
   0.49999956  0.49999956  0.49999956
