   4   4   0   0
  0.3334726E+02  0.5735154E-09  0.5735154E-09  0.5735154E-09  0.5000000E-15
  1.000000000000000E-004
  CAR 
 unknown system                          
      8.72096498    -27.24120194  301      2.18789033      1.00000000
    -27.241  0.0000E+00  0.0000E+00
    -27.121  0.0000E+00  0.0000E+00
    -27.001  0.0000E+00  0.0000E+00
    -26.882  0.0000E+00  0.0000E+00
    -26.762  0.0000E+00  0.0000E+00
    -26.642  0.0000E+00  0.0000E+00
    -26.522  0.0000E+00  0.0000E+00
    -26.402  0.0000E+00  0.0000E+00
    -26.282  0.0000E+00  0.0000E+00
    -26.162  0.0000E+00  0.0000E+00
    -26.042  0.0000E+00  0.0000E+00
    -25.923  0.0000E+00  0.0000E+00
    -25.803  0.2295E-06  0.2751E-07
    -25.683  0.2528E+00  0.3031E-01
    -25.563  0.1459E+02  0.1779E+01
    -25.443  0.1842E+01  0.2000E+01
    -25.323  0.3278E-04  0.2000E+01
    -25.203  0.0000E+00  0.2000E+01
    -25.083  0.0000E+00  0.2000E+01
    -24.964  0.0000E+00  0.2000E+01
    -24.844  0.0000E+00  0.2000E+01
    -24.724  0.0000E+00  0.2000E+01
    -24.604  0.0000E+00  0.2000E+01
    -24.484  0.0000E+00  0.2000E+01
    -24.364  0.0000E+00  0.2000E+01
    -24.244  0.0000E+00  0.2000E+01
    -24.124  0.0000E+00  0.2000E+01
    -24.005  0.0000E+00  0.2000E+01
    -23.885  0.0000E+00  0.2000E+01
    -23.765  0.0000E+00  0.2000E+01
    -23.645  0.0000E+00  0.2000E+01
    -23.525  0.0000E+00  0.2000E+01
    -23.405  0.0000E+00  0.2000E+01
    -23.285  0.0000E+00  0.2000E+01
    -23.165  0.0000E+00  0.2000E+01
    -23.046  0.0000E+00  0.2000E+01
    -22.926  0.0000E+00  0.2000E+01
    -22.806  0.0000E+00  0.2000E+01
    -22.686  0.0000E+00  0.2000E+01
    -22.566  0.8489E-05  0.2000E+01
    -22.446  0.3218E+01  0.2386E+01
    -22.326  0.9057E+02  0.1324E+02
    -22.206  0.6318E+01  0.1400E+02
    -22.087  0.4586E-04  0.1400E+02
    -21.967  0.0000E+00  0.1400E+02
    -21.847  0.0000E+00  0.1400E+02
    -21.727  0.0000E+00  0.1400E+02
    -21.607  0.0000E+00  0.1400E+02
    -21.487  0.0000E+00  0.1400E+02
    -21.367  0.0000E+00  0.1400E+02
    -21.248  0.0000E+00  0.1400E+02
    -21.128  0.0000E+00  0.1400E+02
    -21.008  0.0000E+00  0.1400E+02
    -20.888  0.0000E+00  0.1400E+02
    -20.768  0.0000E+00  0.1400E+02
    -20.648  0.0000E+00  0.1400E+02
    -20.528  0.0000E+00  0.1400E+02
    -20.408  0.0000E+00  0.1400E+02
    -20.289  0.0000E+00  0.1400E+02
    -20.169  0.0000E+00  0.1400E+02
    -20.049  0.0000E+00  0.1400E+02
    -19.929  0.0000E+00  0.1400E+02
    -19.809  0.0000E+00  0.1400E+02
    -19.689  0.0000E+00  0.1400E+02
    -19.569  0.0000E+00  0.1400E+02
    -19.449  0.0000E+00  0.1400E+02
    -19.330  0.2036E-07  0.1400E+02
    -19.210  0.1923E+00  0.1402E+02
    -19.090  0.5914E+02  0.2111E+02
    -18.970  0.2409E+02  0.2400E+02
    -18.850  0.3304E-02  0.2400E+02
    -18.730  0.9137E-11  0.2400E+02
    -18.610  0.0000E+00  0.2400E+02
    -18.490  0.0000E+00  0.2400E+02
    -18.371  0.0000E+00  0.2400E+02
    -18.251  0.0000E+00  0.2400E+02
    -18.131  0.0000E+00  0.2400E+02
    -18.011  0.0000E+00  0.2400E+02
    -17.891  0.0000E+00  0.2400E+02
    -17.771  0.0000E+00  0.2400E+02
    -17.651  0.0000E+00  0.2400E+02
    -17.531  0.0000E+00  0.2400E+02
    -17.412  0.0000E+00  0.2400E+02
    -17.292  0.0000E+00  0.2400E+02
    -17.172  0.0000E+00  0.2400E+02
    -17.052  0.0000E+00  0.2400E+02
    -16.932  0.0000E+00  0.2400E+02
    -16.812  0.0000E+00  0.2400E+02
    -16.692  0.0000E+00  0.2400E+02
    -16.572  0.0000E+00  0.2400E+02
    -16.453  0.0000E+00  0.2400E+02
    -16.333  0.0000E+00  0.2400E+02
    -16.213  0.0000E+00  0.2400E+02
    -16.093  0.0000E+00  0.2400E+02
    -15.973  0.0000E+00  0.2400E+02
    -15.853  0.0000E+00  0.2400E+02
    -15.733  0.0000E+00  0.2400E+02
    -15.613  0.0000E+00  0.2400E+02
    -15.494  0.0000E+00  0.2400E+02
    -15.374  0.0000E+00  0.2400E+02
    -15.254  0.0000E+00  0.2400E+02
    -15.134  0.0000E+00  0.2400E+02
    -15.014  0.0000E+00  0.2400E+02
    -14.894  0.0000E+00  0.2400E+02
    -14.774  0.0000E+00  0.2400E+02
    -14.654  0.0000E+00  0.2400E+02
    -14.535  0.0000E+00  0.2400E+02
    -14.415  0.0000E+00  0.2400E+02
    -14.295  0.0000E+00  0.2400E+02
    -14.175  0.0000E+00  0.2400E+02
    -14.055  0.0000E+00  0.2400E+02
    -13.935  0.0000E+00  0.2400E+02
    -13.815  0.0000E+00  0.2400E+02
    -13.695  0.0000E+00  0.2400E+02
    -13.576  0.0000E+00  0.2400E+02
    -13.456  0.0000E+00  0.2400E+02
    -13.336  0.0000E+00  0.2400E+02
    -13.216  0.0000E+00  0.2400E+02
    -13.096  0.0000E+00  0.2400E+02
    -12.976  0.0000E+00  0.2400E+02
    -12.856  0.0000E+00  0.2400E+02
    -12.736  0.0000E+00  0.2400E+02
    -12.617  0.0000E+00  0.2400E+02
    -12.497  0.0000E+00  0.2400E+02
    -12.377  0.0000E+00  0.2400E+02
    -12.257  0.0000E+00  0.2400E+02
    -12.137  0.0000E+00  0.2400E+02
    -12.017  0.0000E+00  0.2400E+02
    -11.897  0.0000E+00  0.2400E+02
    -11.777  0.0000E+00  0.2400E+02
    -11.658  0.0000E+00  0.2400E+02
    -11.538  0.0000E+00  0.2400E+02
    -11.418  0.0000E+00  0.2400E+02
    -11.298  0.0000E+00  0.2400E+02
    -11.178  0.0000E+00  0.2400E+02
    -11.058  0.0000E+00  0.2400E+02
    -10.938  0.0000E+00  0.2400E+02
    -10.818  0.0000E+00  0.2400E+02
    -10.699  0.0000E+00  0.2400E+02
    -10.579  0.0000E+00  0.2400E+02
    -10.459  0.0000E+00  0.2400E+02
    -10.339  0.0000E+00  0.2400E+02
    -10.219  0.0000E+00  0.2400E+02
    -10.099  0.7525E-15  0.2400E+02
     -9.979  0.4176E-05  0.2400E+02
     -9.859  0.7328E+00  0.2409E+02
     -9.740  0.3856E+02  0.2871E+02
     -9.620  0.1076E+02  0.3000E+02
     -9.500  0.1605E-02  0.3000E+02
     -9.380  0.6483E-11  0.3000E+02
     -9.260  0.0000E+00  0.3000E+02
     -9.140  0.0000E+00  0.3000E+02
     -9.020  0.0000E+00  0.3000E+02
     -8.900  0.0000E+00  0.3000E+02
     -8.781  0.0000E+00  0.3000E+02
     -8.661  0.0000E+00  0.3000E+02
     -8.541  0.0000E+00  0.3000E+02
     -8.421  0.0000E+00  0.3000E+02
     -8.301  0.0000E+00  0.3000E+02
     -8.181  0.0000E+00  0.3000E+02
     -8.061  0.0000E+00  0.3000E+02
     -7.942  0.0000E+00  0.3000E+02
     -7.822  0.0000E+00  0.3000E+02
     -7.702  0.0000E+00  0.3000E+02
     -7.582  0.0000E+00  0.3000E+02
     -7.462  0.6402E-08  0.3000E+02
     -7.342  0.3256E-02  0.3000E+02
     -7.222  0.6920E+00  0.3008E+02
     -7.102  0.8361E+01  0.3109E+02
     -6.983  0.7610E+01  0.3200E+02
     -6.863  0.1759E-01  0.3200E+02
     -6.743  0.2470E-08  0.3200E+02
     -6.623  0.0000E+00  0.3200E+02
     -6.503  0.0000E+00  0.3200E+02
     -6.383  0.0000E+00  0.3200E+02
     -6.263  0.0000E+00  0.3200E+02
     -6.143  0.0000E+00  0.3200E+02
     -6.024  0.0000E+00  0.3200E+02
     -5.904  0.0000E+00  0.3200E+02
     -5.784  0.0000E+00  0.3200E+02
     -5.664  0.0000E+00  0.3200E+02
     -5.544  0.0000E+00  0.3200E+02
     -5.424  0.0000E+00  0.3200E+02
     -5.304  0.0000E+00  0.3200E+02
     -5.184  0.0000E+00  0.3200E+02
     -5.065  0.0000E+00  0.3200E+02
     -4.945  0.0000E+00  0.3200E+02
     -4.825  0.0000E+00  0.3200E+02
     -4.705  0.0000E+00  0.3200E+02
     -4.585  0.0000E+00  0.3200E+02
     -4.465  0.0000E+00  0.3200E+02
     -4.345  0.0000E+00  0.3200E+02
     -4.225  0.0000E+00  0.3200E+02
     -4.106  0.0000E+00  0.3200E+02
     -3.986  0.0000E+00  0.3200E+02
     -3.866  0.0000E+00  0.3200E+02
     -3.746  0.0000E+00  0.3200E+02
     -3.626  0.0000E+00  0.3200E+02
     -3.506  0.0000E+00  0.3200E+02
     -3.386  0.0000E+00  0.3200E+02
     -3.266  0.0000E+00  0.3200E+02
     -3.147  0.0000E+00  0.3200E+02
     -3.027  0.0000E+00  0.3200E+02
     -2.907  0.0000E+00  0.3200E+02
     -2.787  0.0000E+00  0.3200E+02
     -2.667  0.0000E+00  0.3200E+02
     -2.547  0.0000E+00  0.3200E+02
     -2.427  0.0000E+00  0.3200E+02
     -2.307  0.0000E+00  0.3200E+02
     -2.188  0.0000E+00  0.3200E+02
     -2.068  0.0000E+00  0.3200E+02
     -1.948  0.0000E+00  0.3200E+02
     -1.828  0.0000E+00  0.3200E+02
     -1.708  0.0000E+00  0.3200E+02
     -1.588  0.0000E+00  0.3200E+02
     -1.468  0.0000E+00  0.3200E+02
     -1.348  0.0000E+00  0.3200E+02
     -1.229  0.0000E+00  0.3200E+02
     -1.109  0.0000E+00  0.3200E+02
     -0.989  0.0000E+00  0.3200E+02
     -0.869  0.0000E+00  0.3200E+02
     -0.749  0.0000E+00  0.3200E+02
     -0.629  0.0000E+00  0.3200E+02
     -0.509  0.0000E+00  0.3200E+02
     -0.389  0.0000E+00  0.3200E+02
     -0.270  0.1316E-08  0.3200E+02
     -0.150  0.1723E-02  0.3200E+02
     -0.030  0.1266E+00  0.3202E+02
      0.090  0.1262E+01  0.3217E+02
      0.210  0.9652E+00  0.3228E+02
      0.330  0.4036E+01  0.3277E+02
      0.450  0.4181E+01  0.3327E+02
      0.570  0.3560E+01  0.3369E+02
      0.689  0.1191E+01  0.3384E+02
      0.809  0.1052E+01  0.3396E+02
      0.929  0.2060E+01  0.3421E+02
      1.049  0.1545E+01  0.3440E+02
      1.169  0.2074E+01  0.3464E+02
      1.289  0.3512E+01  0.3506E+02
      1.409  0.3909E+01  0.3553E+02
      1.529  0.5469E+01  0.3619E+02
      1.648  0.7787E+01  0.3712E+02
      1.768  0.3215E+01  0.3751E+02
      1.888  0.2556E+01  0.3781E+02
      2.008  0.7262E+00  0.3790E+02
      2.128  0.7494E+00  0.3799E+02
      2.248  0.1052E+00  0.3800E+02
      2.368  0.1630E-02  0.3800E+02
      2.488  0.1671E-08  0.3800E+02
      2.607  0.0000E+00  0.3800E+02
      2.727  0.1433E-07  0.3800E+02
      2.847  0.7168E-02  0.3800E+02
      2.967  0.2355E+00  0.3803E+02
      3.087  0.1525E+00  0.3805E+02
      3.207  0.6803E-01  0.3806E+02
      3.327  0.1352E+00  0.3808E+02
      3.447  0.7677E+00  0.3817E+02
      3.566  0.1651E+01  0.3837E+02
      3.686  0.5114E+00  0.3843E+02
      3.806  0.2462E+01  0.3872E+02
      3.926  0.2960E+01  0.3908E+02
      4.046  0.1938E+01  0.3931E+02
      4.166  0.1341E+01  0.3947E+02
      4.286  0.5132E+01  0.4009E+02
      4.406  0.2793E+01  0.4042E+02
      4.525  0.5399E+00  0.4048E+02
      4.645  0.1015E+01  0.4061E+02
      4.765  0.1126E+01  0.4074E+02
      4.885  0.1213E+01  0.4089E+02
      5.005  0.3831E+01  0.4135E+02
      5.125  0.4172E+01  0.4185E+02
      5.245  0.2491E+01  0.4214E+02
      5.364  0.3064E+01  0.4251E+02
      5.484  0.4640E+01  0.4307E+02
      5.604  0.1451E+01  0.4324E+02
      5.724  0.3122E+01  0.4362E+02
      5.844  0.1626E+01  0.4381E+02
      5.964  0.2837E+01  0.4415E+02
      6.084  0.3195E+01  0.4453E+02
      6.204  0.4814E+01  0.4511E+02
      6.323  0.2740E+01  0.4544E+02
      6.443  0.1851E+01  0.4566E+02
      6.563  0.8517E+00  0.4576E+02
      6.683  0.1828E-01  0.4577E+02
      6.803  0.2394E+00  0.4579E+02
      6.923  0.1072E+01  0.4592E+02
      7.043  0.5525E+00  0.4599E+02
      7.163  0.8682E-01  0.4600E+02
      7.282  0.1513E-02  0.4600E+02
      7.402  0.1411E-08  0.4600E+02
      7.522  0.0000E+00  0.4600E+02
      7.642  0.0000E+00  0.4600E+02
      7.762  0.0000E+00  0.4600E+02
      7.882  0.0000E+00  0.4600E+02
      8.002  0.0000E+00  0.4600E+02
      8.122  0.0000E+00  0.4600E+02
      8.241  0.0000E+00  0.4600E+02
      8.361  0.0000E+00  0.4600E+02
      8.481  0.0000E+00  0.4600E+02
      8.601  0.0000E+00  0.4600E+02
      8.721  0.0000E+00  0.4600E+02
