    4    4    1    1
  0.3334726E+02  0.5735154E-09  0.5735154E-09  0.5735154E-09  0.5000000E-15
  1.000000000000000E-004
  CAR 
 unknown system                          
     38     29     23
 
  0.0000000E+00  0.0000000E+00  0.0000000E+00  0.1953125E-02
    1      -25.606558   1.000000
    2      -22.384115   1.000000
    3      -22.384111   1.000000
    4      -22.384111   1.000000
    5      -22.377287   1.000000
    6      -22.377283   1.000000
    7      -22.377283   1.000000
    8      -19.110015   1.000000
    9      -19.110015   1.000000
   10      -19.110014   1.000000
   11      -19.108746   1.000000
   12      -19.108746   1.000000
   13       -9.750548   1.000000
   14       -9.750543   1.000000
   15       -9.750543   1.000000
   16       -7.282294   1.000000
   17        2.010996   1.000000
   18        2.172535   0.667967
   19        2.172535   0.667967
   20        2.172547   0.667847
   21        4.539935   0.000000
   22        4.539935   0.000000
   23        4.539936   0.000000
 
  0.1250000E+00  0.0000000E+00  0.0000000E+00  0.1562500E-01
    1      -25.606509   1.000000
    2      -22.383847   1.000000
    3      -22.383843   1.000000
    4      -22.383833   1.000000
    5      -22.377554   1.000000
    6      -22.377550   1.000000
    7      -22.377470   1.000000
    8      -19.110056   1.000000
    9      -19.109969   1.000000
   10      -19.109968   1.000000
   11      -19.108732   1.000000
   12      -19.108732   1.000000
   13       -9.761551   1.000000
   14       -9.750780   1.000000
   15       -9.750776   1.000000
   16       -7.250728   1.000000
   17        1.239981   1.000000
   18        2.064265   0.999764
   19        2.064275   0.999764
   20        2.914990   0.000000
   21        4.635659   0.000000
   22        4.698929   0.000000
   23        4.698930   0.000000
 
  0.2500000E+00  0.0000000E+00  0.0000000E+00  0.1562500E-01
    1      -25.606395   1.000000
    2      -22.383119   1.000000
    3      -22.383115   1.000000
    4      -22.383041   1.000000
    5      -22.378303   1.000000
    6      -22.378300   1.000000
    7      -22.378059   1.000000
    8      -19.110195   1.000000
    9      -19.109910   1.000000
   10      -19.109908   1.000000
   11      -19.108744   1.000000
   12      -19.108744   1.000000
   13       -9.787098   1.000000
   14       -9.751367   1.000000
   15       -9.751363   1.000000
   16       -7.174668   1.000000
   17        0.544955   1.000000
   18        1.844514   1.000000
   19        1.844525   1.000000
   20        3.367102   0.000000
   21        5.090720   0.000000
   22        5.090725   0.000000
   23        5.239701   0.000000
 
  0.3750000E+00  0.0000000E+00  0.0000000E+00  0.1562500E-01
    1      -25.606280   1.000000
    2      -22.382032   1.000000
    3      -22.382028   1.000000
    4      -22.381880   1.000000
    5      -22.379411   1.000000
    6      -22.379407   1.000000
    7      -22.379017   1.000000
    8      -19.110352   1.000000
    9      -19.109858   1.000000
   10      -19.109857   1.000000
   11      -19.108743   1.000000
   12      -19.108743   1.000000
   13       -9.811296   1.000000
   14       -9.751951   1.000000
   15       -9.751947   1.000000
   16       -7.098627   1.000000
   17        0.088334   1.000000
   18        1.662902   1.000000
   19        1.662913   1.000000
   20        3.534554   0.000000
   21        5.597807   0.000000
   22        5.597815   0.000000
   23        6.131951   0.000000
 
  0.5000000E+00  0.0000000E+00  0.0000000E+00  0.7812500E-02
    1      -25.606235   1.000000
    2      -22.380948   1.000000
    3      -22.380895   1.000000
    4      -22.380891   1.000000
    5      -22.380549   1.000000
    6      -22.380546   1.000000
    7      -22.379869   1.000000
    8      -19.110439   1.000000
    9      -19.109829   1.000000
   10      -19.109828   1.000000
   11      -19.108729   1.000000
   12      -19.108729   1.000000
   13       -9.820957   1.000000
   14       -9.752189   1.000000
   15       -9.752185   1.000000
   16       -7.067066   1.000000
   17       -0.071221   1.000000
   18        1.595448   1.000000
   19        1.595459   1.000000
   20        3.600545   0.000000
   21        5.969223   0.000000
   22        5.969237   0.000000
   23        6.192749   0.000000
 
  0.1250000E+00  0.1250000E+00  0.0000000E+00  0.1171875E-01
    1      -25.606495   1.000000
    2      -22.384214   1.000000
    3      -22.384211   1.000000
    4      -22.382879   1.000000
    5      -22.378380   1.000000
    6      -22.377195   1.000000
    7      -22.377192   1.000000
    8      -19.110117   1.000000
    9      -19.109935   1.000000
   10      -19.109934   1.000000
   11      -19.108774   1.000000
   12      -19.108673   1.000000
   13       -9.761318   1.000000
   14       -9.752433   1.000000
   15       -9.752430   1.000000
   16       -7.242734   1.000000
   17        1.156521   1.000000
   18        2.018000   0.999999
   19        2.018007   0.999999
   20        3.069601   0.000000
   21        4.242467   0.000000
   22        4.946717   0.000000
   23        4.946719   0.000000
 
  0.2500000E+00  0.1250000E+00  0.0000000E+00  0.4687500E-01
    1      -25.606408   1.000000
    2      -22.384054   1.000000
    3      -22.384026   1.000000
    4      -22.381587   1.000000
    5      -22.379564   1.000000
    6      -22.377378   1.000000
    7      -22.377334   1.000000
    8      -19.110233   1.000000
    9      -19.109902   1.000000
   10      -19.109873   1.000000
   11      -19.108799   1.000000
   12      -19.108647   1.000000
   13       -9.779009   1.000000
   14       -9.754033   1.000000
   15       -9.752992   1.000000
   16       -7.187748   1.000000
   17        0.678282   1.000000
   18        1.802029   1.000000
   19        1.847521   1.000000
   20        3.530071   0.000000
   21        4.272718   0.000000
   22        5.378812   0.000000
   23        5.414062   0.000000
 
  0.3750000E+00  0.1250000E+00  0.0000000E+00  0.4687500E-01
    1      -25.606298   1.000000
    2      -22.383384   1.000000
    3      -22.383299   1.000000
    4      -22.380949   1.000000
    5      -22.380128   1.000000
    6      -22.378065   1.000000
    7      -22.377952   1.000000
    8      -19.110330   1.000000
    9      -19.109899   1.000000
   10      -19.109813   1.000000
   11      -19.108766   1.000000
   12      -19.108659   1.000000
   13       -9.801058   1.000000
   14       -9.754632   1.000000
   15       -9.754297   1.000000
   16       -7.118283   1.000000
   17        0.259337   1.000000
   18        1.543909   1.000000
   19        1.674825   1.000000
   20        3.743027   0.000000
   21        4.881069   0.000000
   22        5.830772   0.000000
   23        5.905432   0.000000
 
  0.5000000E+00  0.1250000E+00  0.0000000E+00  0.4687500E-01
    1      -25.606230   1.000000
    2      -22.382587   1.000000
    3      -22.382306   1.000000
    4      -22.381853   1.000000
    5      -22.379147   1.000000
    6      -22.379012   1.000000
    7      -22.378768   1.000000
    8      -19.110381   1.000000
    9      -19.109900   1.000000
   10      -19.109796   1.000000
   11      -19.108716   1.000000
   12      -19.108691   1.000000
   13       -9.814017   1.000000
   14       -9.756426   1.000000
   15       -9.753889   1.000000
   16       -7.074813   1.000000
   17        0.045171   1.000000
   18        1.392777   1.000000
   19        1.583816   1.000000
   20        3.891889   0.000000
   21        5.290946   0.000000
   22        6.109088   0.000000
   23        6.186483   0.000000
 
 -0.3750000E+00  0.1250000E+00  0.0000000E+00  0.4687500E-01
    1      -25.606244   1.000000
    2      -22.383512   1.000000
    3      -22.380999   1.000000
    4      -22.380821   1.000000
    5      -22.380446   1.000000
    6      -22.380166   1.000000
    7      -22.377752   1.000000
    8      -19.110335   1.000000
    9      -19.109902   1.000000
   10      -19.109822   1.000000
   11      -19.108745   1.000000
   12      -19.108672   1.000000
   13       -9.811447   1.000000
   14       -9.757940   1.000000
   15       -9.752236   1.000000
   16       -7.082648   1.000000
   17        0.086502   1.000000
   18        1.391595   1.000000
   19        1.609846   1.000000
   20        3.923856   0.000000
   21        5.390410   0.000000
   22        5.672195   0.000000
   23        6.175296   0.000000
 
 -0.2500000E+00  0.1250000E+00  0.0000000E+00  0.4687500E-01
    1      -25.606331   1.000000
    2      -22.384179   1.000000
    3      -22.381827   1.000000
    4      -22.381775   1.000000
    5      -22.379600   1.000000
    6      -22.379285   1.000000
    7      -22.377166   1.000000
    8      -19.110241   1.000000
    9      -19.109905   1.000000
   10      -19.109879   1.000000
   11      -19.108794   1.000000
   12      -19.108661   1.000000
   13       -9.795030   1.000000
   14       -9.757536   1.000000
   15       -9.750640   1.000000
   16       -7.137280   1.000000
   17        0.371107   1.000000
   18        1.546467   1.000000
   19        1.747059   1.000000
   20        3.800067   0.000000
   21        5.066729   0.000000
   22        5.140665   0.000000
   23        5.680589   0.000000
 
 -0.1250000E+00  0.1250000E+00  0.0000000E+00  0.2343750E-01
    1      -25.606442   1.000000
    2      -22.384305   1.000000
    3      -22.383007   1.000000
    4      -22.382978   1.000000
    5      -22.378402   1.000000
    6      -22.378214   1.000000
    7      -22.377093   1.000000
    8      -19.110134   1.000000
    9      -19.109939   1.000000
   10      -19.109917   1.000000
   11      -19.108781   1.000000
   12      -19.108686   1.000000
   13       -9.774232   1.000000
   14       -9.754608   1.000000
   15       -9.750039   1.000000
   16       -7.206906   1.000000
   17        0.820540   1.000000
   18        1.828534   1.000000
   19        1.938769   1.000000
   20        3.406583   0.000000
   21        4.595774   0.000000
   22        4.778747   0.000000
   23        5.280287   0.000000
 
  0.2500000E+00  0.2500000E+00  0.0000000E+00  0.1171875E-01
    1      -25.606358   1.000000
    2      -22.384482   1.000000
    3      -22.384480   1.000000
    4      -22.381018   1.000000
    5      -22.379925   1.000000
    6      -22.376967   1.000000
    7      -22.376964   1.000000
    8      -19.110403   1.000000
    9      -19.109805   1.000000
   10      -19.109804   1.000000
   11      -19.108786   1.000000
   12      -19.108573   1.000000
   13       -9.780020   1.000000
   14       -9.757068   1.000000
   15       -9.757065   1.000000
   16       -7.168898   1.000000
   17        0.576649   1.000000
   18        1.758222   1.000000
   19        1.758228   1.000000
   20        3.744921   0.000000
   21        3.753143   0.000000
   22        5.924370   0.000000
   23        5.924372   0.000000
 
  0.3750000E+00  0.2500000E+00  0.0000000E+00  0.4687500E-01
    1      -25.606279   1.000000
    2      -22.384340   1.000000
    3      -22.384324   1.000000
    4      -22.382409   1.000000
    5      -22.378392   1.000000
    6      -22.377133   1.000000
    7      -22.377111   1.000000
    8      -19.110502   1.000000
    9      -19.109783   1.000000
   10      -19.109739   1.000000
   11      -19.108731   1.000000
   12      -19.108539   1.000000
   13       -9.790364   1.000000
   14       -9.759926   1.000000
   15       -9.758706   1.000000
   16       -7.129806   1.000000
   17        0.406151   1.000000
   18        1.489952   1.000000
   19        1.639585   1.000000
   20        3.727311   0.000000
   21        4.171331   0.000000
   22        5.933786   0.000000
   23        6.319884   0.000000
 
  0.5000000E+00  0.2500000E+00  0.0000000E+00  0.4687500E-01
    1      -25.606215   1.000000
    2      -22.384060   1.000000
    3      -22.383644   1.000000
    4      -22.383072   1.000000
    5      -22.377834   1.000000
    6      -22.377788   1.000000
    7      -22.377219   1.000000
    8      -19.110449   1.000000
    9      -19.109881   1.000000
   10      -19.109713   1.000000
   11      -19.108668   1.000000
   12      -19.108577   1.000000
   13       -9.798245   1.000000
   14       -9.765522   1.000000
   15       -9.757980   1.000000
   16       -7.093363   1.000000
   17        0.321461   1.000000
   18        1.127575   1.000000
   19        1.556992   1.000000
   20        3.931969   0.000000
   21        5.003270   0.000000
   22        5.539556   0.000000
   23        6.490609   0.000000
 
 -0.3750000E+00  0.2500000E+00  0.0000000E+00  0.4687500E-01
    1      -25.606203   1.000000
    2      -22.384572   1.000000
    3      -22.382497   1.000000
    4      -22.382067   1.000000
    5      -22.378972   1.000000
    6      -22.378911   1.000000
    7      -22.376592   1.000000
    8      -19.110283   1.000000
    9      -19.110034   1.000000
   10      -19.109747   1.000000
   11      -19.108681   1.000000
   12      -19.108612   1.000000
   13       -9.799866   1.000000
   14       -9.770202   1.000000
   15       -9.755320   1.000000
   16       -7.080246   1.000000
   17        0.309646   1.000000
   18        0.961107   1.000000
   19        1.549946   1.000000
   20        4.304284   0.000000
   21        5.199041   0.000000
   22        6.029142   0.000000
   23        6.035231   0.000000
 
 -0.2500000E+00  0.2500000E+00  0.0000000E+00  0.2343750E-01
    1      -25.606251   1.000000
    2      -22.384681   1.000000
    3      -22.381072   1.000000
    4      -22.380665   1.000000
    5      -22.380373   1.000000
    6      -22.380316   1.000000
    7      -22.376581   1.000000
    8      -19.110204   1.000000
    9      -19.110026   1.000000
   10      -19.109803   1.000000
   11      -19.108768   1.000000
   12      -19.108601   1.000000
   13       -9.798736   1.000000
   14       -9.766875   1.000000
   15       -9.752283   1.000000
   16       -7.098166   1.000000
   17        0.303125   1.000000
   18        1.139490   1.000000
   19        1.624527   1.000000
   20        4.455598   0.000000
   21        5.233708   0.000000
   22        5.294793   0.000000
   23        5.486383   0.000000
 
  0.3750000E+00  0.3750000E+00  0.0000000E+00  0.1171875E-01
    1      -25.606241   1.000000
    2      -22.384744   1.000000
    3      -22.384742   1.000000
    4      -22.383656   1.000000
    5      -22.376968   1.000000
    6      -22.376748   1.000000
    7      -22.376745   1.000000
    8      -19.110686   1.000000
    9      -19.109669   1.000000
   10      -19.109668   1.000000
   11      -19.108662   1.000000
   12      -19.108457   1.000000
   13       -9.789128   1.000000
   14       -9.761782   1.000000
   15       -9.761779   1.000000
   16       -7.126920   1.000000
   17        0.410536   1.000000
   18        1.580793   1.000000
   19        1.580799   1.000000
   20        3.385264   0.000000
   21        3.869430   0.000000
   22        6.340876   0.000000
   23        6.761280   0.000000
 
  0.5000000E+00  0.3750000E+00  0.0000000E+00  0.4687500E-01
    1      -25.606203   1.000000
    2      -22.384835   1.000000
    3      -22.384540   1.000000
    4      -22.384122   1.000000
    5      -22.376964   1.000000
    6      -22.376954   1.000000
    7      -22.376130   1.000000
    8      -19.110689   1.000000
    9      -19.109702   1.000000
   10      -19.109642   1.000000
   11      -19.108609   1.000000
   12      -19.108463   1.000000
   13       -9.789274   1.000000
   14       -9.767612   1.000000
   15       -9.762064   1.000000
   16       -7.111653   1.000000
   17        0.447743   1.000000
   18        1.266035   1.000000
   19        1.531874   1.000000
   20        3.517017   0.000000
   21        4.106186   0.000000
   22        6.332499   0.000000
   23        6.938131   0.000000
 
 -0.3750000E+00  0.3750000E+00  0.0000000E+00  0.2343750E-01
    1      -25.606185   1.000000
    2      -22.385009   1.000000
    3      -22.383748   1.000000
    4      -22.383321   1.000000
    5      -22.377742   1.000000
    6      -22.377716   1.000000
    7      -22.376003   1.000000
    8      -19.110502   1.000000
    9      -19.109876   1.000000
   10      -19.109671   1.000000
   11      -19.108575   1.000000
   12      -19.108554   1.000000
   13       -9.782642   1.000000
   14       -9.782192   1.000000
   15       -9.759389   1.000000
   16       -7.092461   1.000000
   17        0.612364   1.000000
   18        0.752360   1.000000
   19        1.518837   1.000000
   20        3.859076   0.000000
   21        4.976910   0.000000
   22        6.031176   0.000000
   23        6.400269   0.000000
 
  0.5000000E+00  0.5000000E+00  0.0000000E+00  0.5859375E-02
    1      -25.606197   1.000000
    2      -22.384855   1.000000
    3      -22.384852   1.000000
    4      -22.384748   1.000000
    5      -22.376658   1.000000
    6      -22.376655   1.000000
    7      -22.375743   1.000000
    8      -19.110799   1.000000
    9      -19.109613   1.000000
   10      -19.109612   1.000000
   11      -19.108568   1.000000
   12      -19.108415   1.000000
   13       -9.790221   1.000000
   14       -9.763751   1.000000
   15       -9.763748   1.000000
   16       -7.119163   1.000000
   17        0.427027   1.000000
   18        1.521921   1.000000
   19        1.521927   1.000000
   20        3.258643   0.000000
   21        3.716590   0.000000
   22        6.845899   0.000000
   23        7.086321   0.000000
 
  0.3750000E+00  0.2500000E+00  0.1250000E+00  0.4687500E-01
    1      -25.606325   1.000000
    2      -22.384538   1.000000
    3      -22.383270   1.000000
    4      -22.380976   1.000000
    5      -22.380049   1.000000
    6      -22.378115   1.000000
    7      -22.376856   1.000000
    8      -19.110332   1.000000
    9      -19.109874   1.000000
   10      -19.109822   1.000000
   11      -19.108788   1.000000
   12      -19.108612   1.000000
   13       -9.789639   1.000000
   14       -9.759921   1.000000
   15       -9.753277   1.000000
   16       -7.141934   1.000000
   17        0.444002   1.000000
   18        1.515942   1.000000
   19        1.703003   1.000000
   20        4.026043   0.000000
   21        4.238083   0.000000
   22        5.692473   0.000000
   23        5.728997   0.000000
 
  0.5000000E+00  0.2500000E+00  0.1250000E+00  0.9375000E-01
    1      -25.606242   1.000000
    2      -22.384445   1.000000
    3      -22.382379   1.000000
    4      -22.382053   1.000000
    5      -22.379276   1.000000
    6      -22.378616   1.000000
    7      -22.376903   1.000000
    8      -19.110336   1.000000
    9      -19.109952   1.000000
   10      -19.109759   1.000000
   11      -19.108730   1.000000
   12      -19.108601   1.000000
   13       -9.800106   1.000000
   14       -9.763790   1.000000
   15       -9.755125   1.000000
   16       -7.096678   1.000000
   17        0.279029   1.000000
   18        1.227971   1.000000
   19        1.555678   1.000000
   20        4.241862   0.000000
   21        4.905848   0.000000
   22        5.389403   0.000000
   23        6.224659   0.000000
 
 -0.3750000E+00  0.2500000E+00  0.1250000E+00  0.4687500E-01
    1      -25.606207   1.000000
    2      -22.384097   1.000000
    3      -22.383152   1.000000
    4      -22.380837   1.000000
    5      -22.380515   1.000000
    6      -22.377560   1.000000
    7      -22.377470   1.000000
    8      -19.110312   1.000000
    9      -19.110024   1.000000
   10      -19.109740   1.000000
   11      -19.108676   1.000000
   12      -19.108641   1.000000
   13       -9.804445   1.000000
   14       -9.764579   1.000000
   15       -9.756532   1.000000
   16       -7.078080   1.000000
   17        0.221179   1.000000
   18        1.118274   1.000000
   19        1.498123   1.000000
   20        4.368050   0.000000
   21        4.933745   0.000000
   22        5.906469   0.000000
   23        6.129468   0.000000
 
  0.5000000E+00  0.3750000E+00  0.1250000E+00  0.4687500E-01
    1      -25.606225   1.000000
    2      -22.384892   1.000000
    3      -22.383541   1.000000
    4      -22.383517   1.000000
    5      -22.377935   1.000000
    6      -22.377102   1.000000
    7      -22.376617   1.000000
    8      -19.110546   1.000000
    9      -19.109818   1.000000
   10      -19.109673   1.000000
   11      -19.108671   1.000000
   12      -19.108517   1.000000
   13       -9.791361   1.000000
   14       -9.765316   1.000000
   15       -9.761244   1.000000
   16       -7.108559   1.000000
   17        0.411847   1.000000
   18        1.299860   1.000000
   19        1.438624   1.000000
   20        3.924721   0.000000
   21        4.343533   0.000000
   22        5.717362   0.000000
   23        6.853845   0.000000
 
 -0.3750000E+00  0.3750000E+00  0.1250000E+00  0.9375000E-01
    1      -25.606190   1.000000
    2      -22.385103   1.000000
    3      -22.383902   1.000000
    4      -22.382287   1.000000
    5      -22.379174   1.000000
    6      -22.376730   1.000000
    7      -22.376358   1.000000
    8      -19.110414   1.000000
    9      -19.109988   1.000000
   10      -19.109652   1.000000
   11      -19.108618   1.000000
   12      -19.108553   1.000000
   13       -9.788870   1.000000
   14       -9.772980   1.000000
   15       -9.762603   1.000000
   16       -7.090394   1.000000
   17        0.521644   1.000000
   18        0.927361   1.000000
   19        1.352152   1.000000
   20        4.249421   0.000000
   21        5.037519   0.000000
   22        5.410571   0.000000
   23        6.154327   0.000000
 
 -0.2500000E+00  0.3750000E+00  0.1250000E+00  0.4687500E-01
    1      -25.606196   1.000000
    2      -22.385020   1.000000
    3      -22.383414   1.000000
    4      -22.380781   1.000000
    5      -22.380638   1.000000
    6      -22.377417   1.000000
    7      -22.376313   1.000000
    8      -19.110201   1.000000
    9      -19.110167   1.000000
   10      -19.109684   1.000000
   11      -19.108658   1.000000
   12      -19.108573   1.000000
   13       -9.791966   1.000000
   14       -9.773923   1.000000
   15       -9.759055   1.000000
   16       -7.085367   1.000000
   17        0.464754   1.000000
   18        0.885516   1.000000
   19        1.414602   1.000000
   20        4.644290   0.000000
   21        5.087380   0.000000
   22        5.235614   0.000000
   23        6.042101   0.000000
 
 -0.3750000E+00  0.5000000E+00  0.1250000E+00  0.2343750E-01
    1      -25.606188   1.000000
    2      -22.385316   1.000000
    3      -22.384288   1.000000
    4      -22.383653   1.000000
    5      -22.377859   1.000000
    6      -22.376531   1.000000
    7      -22.375868   1.000000
    8      -19.110633   1.000000
    9      -19.109784   1.000000
   10      -19.109619   1.000000
   11      -19.108572   1.000000
   12      -19.108477   1.000000
   13       -9.786289   1.000000
   14       -9.767797   1.000000
   15       -9.767569   1.000000
   16       -7.104249   1.000000
   17        0.520570   1.000000
   18        1.226524   1.000000
   19        1.272589   1.000000
   20        3.814833   0.000000
   21        4.250802   0.000000
   22        6.322856   0.000000
   23        6.423221   0.000000
 
 -0.2500000E+00  0.5000000E+00  0.2500000E+00  0.1171875E-01
    1      -25.606181   1.000000
    2      -22.385531   1.000000
    3      -22.384082   1.000000
    4      -22.380765   1.000000
    5      -22.380762   1.000000
    6      -22.376300   1.000000
    7      -22.376116   1.000000
    8      -19.110230   1.000000
    9      -19.110229   1.000000
   10      -19.109644   1.000000
   11      -19.108616   1.000000
   12      -19.108547   1.000000
   13       -9.776876   1.000000
   14       -9.776873   1.000000
   15       -9.771819   1.000000
   16       -7.089271   1.000000
   17        0.799593   1.000000
   18        0.799603   1.000000
   19        1.076077   1.000000
   20        4.998865   0.000000
   21        4.998865   0.000000
   22        5.033834   0.000000
   23        5.582087   0.000000
