       N       E                     dE             d eps       ncg     rms          rms(c)
DAV:   1     0.375998880318E+03    0.37600E+03   -0.19571E+04  1366   0.172E+03
DAV:   2     0.263403876678E+02   -0.34966E+03   -0.34585E+03  1390   0.457E+02
DAV:   3    -0.844735959111E+01   -0.34788E+02   -0.34328E+02  2106   0.159E+02
DAV:   4    -0.934639353036E+01   -0.89903E+00   -0.89872E+00  1661   0.263E+01
DAV:   5    -0.938588773985E+01   -0.39494E-01   -0.39493E-01  2301   0.409E+00    0.347E+00
DAV:   6    -0.898180697301E+01    0.40408E+00   -0.86396E-01  1720   0.351E+00    0.230E+00
DAV:   7    -0.890304893680E+01    0.78758E-01   -0.49260E-01  1848   0.276E+00    0.111E+00
DAV:   8    -0.890662425975E+01   -0.35753E-02   -0.57727E-02  1591   0.184E+00    0.196E-01
DAV:   9    -0.890623427205E+01    0.38999E-03   -0.13918E-02  1607   0.748E-01    0.973E-02
DAV:  10    -0.890599459073E+01    0.23968E-03   -0.21660E-03  1831   0.205E-01    0.165E-02
DAV:  11    -0.890601003429E+01   -0.15444E-04   -0.96653E-05  1696   0.549E-02    0.103E-02
DAV:  12    -0.890600741200E+01    0.26223E-05   -0.22754E-05  1654   0.265E-02    0.148E-03
DAV:  13    -0.890600768338E+01   -0.27139E-06   -0.98584E-07  1898   0.543E-03    0.637E-04
DAV:  14    -0.890600783100E+01   -0.14761E-06   -0.70121E-08  1667   0.159E-03    0.170E-04
DAV:  15    -0.890600783215E+01   -0.11496E-08   -0.53312E-09  1073   0.490E-04
   1 F= -.89060078E+01 E0= -.89059316E+01  d E =-.152380E-03
