 vasp.5.4.4.18Apr17-6-g9f103f2a35 (build Jun 23 2019 17:35:09) complex          
  
 executed on             LinuxIFC date 2020.01.15  15:37:53
 running on   28 total cores
 distrk:  each k-point on    7 cores,    4 groups
 distr:  one band on NCORES_PER_BAND=   7 cores,    1 groups


--------------------------------------------------------------------------------------------------------


 INCAR:
 POTCAR:    PAW_PBE Bi_d 06Sep2000                
 POTCAR:    PAW_PBE Na_pv 19Sep2006               
 POTCAR:    PAW_PBE Rb_sv 06Sep2000               

 ----------------------------------------------------------------------------- 
|                                                                             |
|           W    W    AA    RRRRR   N    N  II  N    N   GGGG   !!!           |
|           W    W   A  A   R    R  NN   N  II  NN   N  G    G  !!!           |
|           W    W  A    A  R    R  N N  N  II  N N  N  G       !!!           |
|           W WW W  AAAAAA  RRRRR   N  N N  II  N  N N  G  GGG   !            |
|           WW  WW  A    A  R   R   N   NN  II  N   NN  G    G                |
|           W    W  A    A  R    R  N    N  II  N    N   GGGG   !!!           |
|                                                                             |
|      You have enabled k-point parallelism (KPAR>1).                         |
|      This developmental code was originally  written by Paul Kent at ORNL,  |
|      and carefully double checked in Vienna.                                |
|      GW as well as linear response parallelism added by Martijn Marsman     |
|      and Georg Kresse.                                                      |
|      Carefully verify results versus KPAR=1.                                |
|      Report problems to Paul Kent and Vienna.                               |
|                                                                             |
 ----------------------------------------------------------------------------- 

 POTCAR:    PAW_PBE Bi_d 06Sep2000                
   VRHFIN =Bi:                                                                  
   LEXCH  = PE                                                                  
   EATOM  =  1959.2045 eV,  143.9975 Ry                                         
                                                                                
   TITEL  = PAW_PBE Bi_d 06Sep2000                                              
   LULTRA =        F    use ultrasoft PP ?                                      
   IUNSCR =        1    unscreen: 0-lin 1-nonlin 2-no                           
   RPACOR =    2.200    partial core radius                                     
   POMASS =  208.980; ZVAL   =   15.000    mass and valenz                      
   RCORE  =    2.500    outmost cutoff radius                                   
   RWIGS  =    3.090; RWIGS  =    1.635    wigner-seitz radius (au A)           
   ENMAX  =  242.839; ENMIN  =  182.129 eV                                      
   ICORE  =        3    local potential                                         
   LCOR   =        T    correct aug charges                                     
   LPAW   =        T    paw PP                                                  
   EAUG   =  442.899                                                            
   DEXC   =    0.000                                                            
   RMAX   =    2.551    core radius for proj-oper                               
   RAUG   =    1.300    factor for augmentation sphere                          
   RDEP   =    2.650    radius for radial grids                                 
   RDEPT  =    2.039    core radius for aug-charge                              
                                                                                
   Atomic configuration                                                         
   16 entries                                                                   
     n  l   j            E        occ.                                          
     1  0  0.50    -90639.6581   2.0000                                         
     2  0  0.50    -16282.4666   2.0000                                         
     2  1  1.50    -13922.8286   6.0000                                         
     3  0  0.50     -3930.4763   2.0000                                         
     3  1  1.50     -3256.7013   6.0000                                         
     3  2  2.50     -2581.6168  10.0000                                         
     4  0  0.50      -902.2614   2.0000                                         
     4  1  1.50      -681.5915   6.0000                                         
     4  2  2.50      -429.8249  10.0000                                         
     4  3  3.50      -152.6004  14.0000                                         
     5  0  0.50      -157.7156   2.0000                                         
     5  1  1.50       -95.8054   6.0000                                         
     5  2  2.50       -27.0806  10.0000                                         
     6  0  0.50       -14.4732   2.0000                                         
     6  1  1.50        -4.5702   3.0000                                         
     5  3  2.50        -2.7212   0.0000                                         
   Description                                                                  
     l       E           TYP  RCUT    TYP  RCUT                                 
     2    -27.0805982     23  2.500                                             
     2     -1.3605826     23  2.500                                             
     0    -14.4732271     23  2.500                                             
     0      6.8029130     23  2.500                                             
     1     -4.5701651     23  2.500                                             
     1     13.6058260     23  2.500                                             
     3     -1.3605826      7  2.500                                             
  local pseudopotential read in
  partial core-charges read in
  partial kinetic energy density read in
  atomic valenz-charges read in
  non local Contribution for L=           2  read in
    real space projection operators read in
  non local Contribution for L=           2  read in
    real space projection operators read in
  non local Contribution for L=           0  read in
    real space projection operators read in
  non local Contribution for L=           0  read in
    real space projection operators read in
  non local Contribution for L=           1  read in
    real space projection operators read in
  non local Contribution for L=           1  read in
    real space projection operators read in
    PAW grid and wavefunctions read in
 
   number of l-projection  operators is LMAX  =           6
   number of lm-projection operators is LMMAX =          18
 
 POTCAR:    PAW_PBE Na_pv 19Sep2006               
   VRHFIN =Na: p6s1                                                             
   LEXCH  = PE                                                                  
   EATOM  =   766.0439 eV,   56.3026 Ry                                         
                                                                                
   TITEL  = PAW_PBE Na_pv 19Sep2006                                             
   LULTRA =        F    use ultrasoft PP ?                                      
   IUNSCR =        1    unscreen: 0-lin 1-nonlin 2-no                           
   RPACOR =    1.800    partial core radius                                     
   POMASS =   22.990; ZVAL   =    7.000    mass and valenz                      
   RCORE  =    2.200    outmost cutoff radius                                   
   RWIGS  =    2.200; RWIGS  =    1.164    wigner-seitz radius (au A)           
   ENMAX  =  259.561; ENMIN  =  194.671 eV                                      
   ICORE  =        2    local potential                                         
   LCOR   =        T    correct aug charges                                     
   LPAW   =        T    paw PP                                                  
   EAUG   =  368.056                                                            
   DEXC   =    0.000                                                            
   RMAX   =    2.245    core radius for proj-oper                               
   RAUG   =    1.300    factor for augmentation sphere                          
   RDEP   =    2.259    radius for radial grids                                 
   RDEPT  =    1.738    core radius for aug-charge                              
                                                                                
   Atomic configuration                                                         
    5 entries                                                                   
     n  l   j            E        occ.                                          
     1  0  0.50     -1033.6933   2.0000                                         
     2  0  0.50       -56.7526   2.0000                                         
     2  1  1.50       -28.6721   6.0000                                         
     3  0  0.50        -2.7440   1.0000                                         
     3  2  1.50        -1.3606   0.0000                                         
   Description                                                                  
     l       E           TYP  RCUT    TYP  RCUT                                 
     1    -28.6720912     23  2.000                                             
     1      6.8029130     23  2.000                                             
     0     -2.7439560     23  2.200                                             
     0     34.0145650     23  2.200                                             
     2     -1.3605826     23  2.200                                             
  local pseudopotential read in
  partial core-charges read in
  partial kinetic energy density read in
  atomic valenz-charges read in
  non local Contribution for L=           1  read in
    real space projection operators read in
  non local Contribution for L=           1  read in
    real space projection operators read in
  non local Contribution for L=           0  read in
    real space projection operators read in
  non local Contribution for L=           0  read in
    real space projection operators read in
    PAW grid and wavefunctions read in
 
   number of l-projection  operators is LMAX  =           4
   number of lm-projection operators is LMMAX =           8
 
 POTCAR:    PAW_PBE Rb_sv 06Sep2000               
   VRHFIN =Rb: 4s4p5s                                                           
   LEXCH  = PE                                                                  
   EATOM  =   662.5034 eV,   48.6926 Ry                                         
                                                                                
   TITEL  = PAW_PBE Rb_sv 06Sep2000                                             
   LULTRA =        F    use ultrasoft PP ?                                      
   IUNSCR =        1    unscreen: 0-lin 1-nonlin 2-no                           
   RPACOR =    2.200    partial core radius                                     
   POMASS =   85.468; ZVAL   =    9.000    mass and valenz                      
   RCORE  =    2.500    outmost cutoff radius                                   
   RWIGS  =    4.570; RWIGS  =    2.418    wigner-seitz radius (au A)           
   ENMAX  =  220.112; ENMIN  =  165.084 eV                                      
   RCLOC  =    2.200    cutoff for local pot                                    
   LCOR   =        T    correct aug charges                                     
   LPAW   =        T    paw PP                                                  
   EAUG   =  423.861                                                            
   DEXC   =    0.000                                                            
   RMAX   =    2.546    core radius for proj-oper                               
   RAUG   =    1.300    factor for augmentation sphere                          
   RDEP   =    2.541    radius for radial grids                                 
   RDEPT  =    2.044    core radius for aug-charge                              
                                                                                
   Atomic configuration                                                         
   10 entries                                                                   
     n  l   j            E        occ.                                          
     1  0  0.50    -15031.5419   2.0000                                         
     2  0  0.50     -2007.8842   2.0000                                         
     2  1  1.50     -1779.8144   6.0000                                         
     3  0  0.50      -297.9619   2.0000                                         
     3  1  1.50      -224.8335   6.0000                                         
     3  2  2.50      -103.9539  10.0000                                         
     4  0  0.50       -31.8932   2.0000                                         
     5  0  0.50        -2.2327   0.9990                                         
     4  1  1.50       -15.9645   6.0000                                         
     4  2  1.50        -0.0020   0.0010                                         
   Description                                                                  
     l       E           TYP  RCUT    TYP  RCUT                                 
     0    -31.8932387     23  2.500                                             
     0     -2.2326525     23  2.500                                             
     1    -15.9644597     23  2.500                                             
     1    -17.3250423     23  2.500                                             
     2     -0.0020100     23  2.500                                             
  local pseudopotential read in
  partial core-charges read in
  partial kinetic energy density read in
  atomic valenz-charges read in
  non local Contribution for L=           0  read in
    real space projection operators read in
  non local Contribution for L=           0  read in
    real space projection operators read in
  non local Contribution for L=           1  read in
    real space projection operators read in
  non local Contribution for L=           1  read in
    real space projection operators read in
  non local Contribution for L=           2  read in
    real space projection operators read in
    PAW grid and wavefunctions read in
 
   number of l-projection  operators is LMAX  =           5
   number of lm-projection operators is LMMAX =          13
 
  PAW_PBE Bi_d 06Sep2000                :
 energy of atom  1       EATOM=-1959.2045
 kinetic energy error for atom=    0.0040 (will be added to EATOM!!)
  PAW_PBE Na_pv 19Sep2006               :
 energy of atom  2       EATOM= -766.0439
 kinetic energy error for atom=    0.0019 (will be added to EATOM!!)
  PAW_PBE Rb_sv 06Sep2000               :
 energy of atom  3       EATOM= -662.5034
 kinetic energy error for atom=    0.0006 (will be added to EATOM!!)
 
 
 POSCAR: Na Bi Rb                                
  positions in direct lattice
  velocities in cartesian coordinates
 exchange correlation table for  LEXCH =        8
   RHO(1)=    0.500       N(1)  =     2000
   RHO(2)=  100.500       N(2)  =     4000
 


--------------------------------------------------------------------------------------------------------


 ion  position               nearest neighbor table
   1  0.250  0.250  0.250-   4 4.06   4 4.06   4 4.06   4 4.06   4 4.06   4 4.06
   2  0.000  0.000  0.000-   4 3.51   4 3.51   4 3.51   4 3.51
   3  0.500  0.500  0.500-   4 3.51   4 3.51   4 3.51   4 3.51
   4  0.750  0.750  0.750-   3 3.51   2 3.51   2 3.51   2 3.51   3 3.51   3 3.51   3 3.51   2 3.51
                             1 4.06   1 4.06   1 4.06   1 4.06   1 4.06   1 4.06
 
  LATTYP: Found a face centered cubic cell.
 ALAT       =     8.1107322821
  
  Lattice vectors:
  
 A1 = (   0.0000000000,   4.0553661411,   4.0553661411)
 A2 = (   4.0553661411,   0.0000000000,   4.0553661411)
 A3 = (   4.0553661411,   4.0553661411,   0.0000000000)


Analysis of symmetry for initial positions (statically):
=====================================================================
 Subroutine PRICEL returns:
 Original cell was already a primitive cell.
 

 Routine SETGRP: Setting up the symmetry group for a 
 face centered cubic supercell.


 Subroutine GETGRP returns: Found 48 space group operations
 (whereof 24 operations were pure point group operations)
 out of a pool of 48 trial point group operations.


The static configuration has the point symmetry T_d .
 The point group associated with its full space group is O_h .


Analysis of symmetry for dynamics (positions and initial velocities):
=====================================================================
 Subroutine PRICEL returns:
 Original cell was already a primitive cell.
 

 Routine SETGRP: Setting up the symmetry group for a 
 face centered cubic supercell.


 Subroutine GETGRP returns: Found 48 space group operations
 (whereof 24 operations were pure point group operations)
 out of a pool of 48 trial point group operations.


The dynamic configuration has the point symmetry T_d .
 The point group associated with its full space group is O_h .


 Subroutine INISYM returns: Found 48 space group operations
 (whereof 24 operations are pure point group operations),
 and found     1 'primitive' translations

 
 
 KPOINTS: KPOINTS                                 

Automatic generation of k-mesh.
Space group operators:
 irot       det(A)        alpha          n_x          n_y          n_z        tau_x        tau_y        tau_z
    1     1.000000     0.000000     1.000000     0.000000     0.000000     0.000000     0.000000     0.000000
    2     1.000000   120.000000    -0.577350    -0.577350    -0.577350     0.000000     0.000000     0.000000
    3     1.000000   120.000000     0.577350     0.577350     0.577350     0.000000     0.000000     0.000000
    4    -1.000000    90.000000     0.000000     0.000000    -1.000000     0.000000     0.000000     0.000000
    5    -1.000000   180.000000     0.000000     0.707107     0.707107     0.000000     0.000000     0.000000
    6    -1.000000    90.000000     0.000000     1.000000     0.000000     0.000000     0.000000     0.000000
    7     1.000000   180.000000     0.000000     0.000000     1.000000     0.000000     0.000000     0.000000
    8     1.000000   120.000000    -0.577350     0.577350     0.577350     0.000000     0.000000     0.000000
    9     1.000000   120.000000    -0.577350     0.577350    -0.577350     0.000000     0.000000     0.000000
   10    -1.000000    90.000000     0.000000     0.000000     1.000000     0.000000     0.000000     0.000000
   11    -1.000000    90.000000    -1.000000     0.000000     0.000000     0.000000     0.000000     0.000000
   12    -1.000000   180.000000     0.707107     0.000000     0.707107     0.000000     0.000000     0.000000
   13     1.000000   120.000000     0.577350    -0.577350     0.577350     0.000000     0.000000     0.000000
   14     1.000000   120.000000    -0.577350    -0.577350     0.577350     0.000000     0.000000     0.000000
   15     1.000000   180.000000     1.000000     0.000000     0.000000     0.000000     0.000000     0.000000
   16    -1.000000    90.000000     0.000000    -1.000000     0.000000     0.000000     0.000000     0.000000
   17    -1.000000   180.000000     0.707107     0.707107     0.000000     0.000000     0.000000     0.000000
   18    -1.000000    90.000000     1.000000     0.000000     0.000000     0.000000     0.000000     0.000000
   19     1.000000   120.000000     0.577350    -0.577350    -0.577350     0.000000     0.000000     0.000000
   20     1.000000   180.000000     0.000000     1.000000     0.000000     0.000000     0.000000     0.000000
   21     1.000000   120.000000     0.577350     0.577350    -0.577350     0.000000     0.000000     0.000000
   22    -1.000000   180.000000     0.000000    -0.707107     0.707107     0.000000     0.000000     0.000000
   23    -1.000000   180.000000     0.707107    -0.707107     0.000000     0.000000     0.000000     0.000000
   24    -1.000000   180.000000     0.707107     0.000000    -0.707107     0.000000     0.000000     0.000000
   25    -1.000000     0.000000     1.000000     0.000000     0.000000     0.500000     0.500000     0.500000
   26    -1.000000   120.000000    -0.577350    -0.577350    -0.577350     0.500000     0.500000     0.500000
   27    -1.000000   120.000000     0.577350     0.577350     0.577350     0.500000     0.500000     0.500000
   28     1.000000    90.000000     0.000000     0.000000    -1.000000     0.500000     0.500000     0.500000
   29     1.000000   180.000000     0.000000     0.707107     0.707107     0.500000     0.500000     0.500000
   30     1.000000    90.000000     0.000000     1.000000     0.000000     0.500000     0.500000     0.500000
   31    -1.000000   180.000000     0.000000     0.000000     1.000000     0.500000     0.500000     0.500000
   32    -1.000000   120.000000    -0.577350     0.577350     0.577350     0.500000     0.500000     0.500000
   33    -1.000000   120.000000    -0.577350     0.577350    -0.577350     0.500000     0.500000     0.500000
   34     1.000000    90.000000     0.000000     0.000000     1.000000     0.500000     0.500000     0.500000
   35     1.000000    90.000000    -1.000000     0.000000     0.000000     0.500000     0.500000     0.500000
   36     1.000000   180.000000     0.707107     0.000000     0.707107     0.500000     0.500000     0.500000
   37    -1.000000   120.000000     0.577350    -0.577350     0.577350     0.500000     0.500000     0.500000
   38    -1.000000   120.000000    -0.577350    -0.577350     0.577350     0.500000     0.500000     0.500000
   39    -1.000000   180.000000     1.000000     0.000000     0.000000     0.500000     0.500000     0.500000
   40     1.000000    90.000000     0.000000    -1.000000     0.000000     0.500000     0.500000     0.500000
   41     1.000000   180.000000     0.707107     0.707107     0.000000     0.500000     0.500000     0.500000
   42     1.000000    90.000000     1.000000     0.000000     0.000000     0.500000     0.500000     0.500000
   43    -1.000000   120.000000     0.577350    -0.577350    -0.577350     0.500000     0.500000     0.500000
   44    -1.000000   180.000000     0.000000     1.000000     0.000000     0.500000     0.500000     0.500000
   45    -1.000000   120.000000     0.577350     0.577350    -0.577350     0.500000     0.500000     0.500000
   46     1.000000   180.000000     0.000000    -0.707107     0.707107     0.500000     0.500000     0.500000
   47     1.000000   180.000000     0.707107    -0.707107     0.000000     0.500000     0.500000     0.500000
   48     1.000000   180.000000     0.707107     0.000000    -0.707107     0.500000     0.500000     0.500000
 
 Subroutine IBZKPT returns following result:
 ===========================================
 
 Found     29 irreducible k-points:
 
 Following reciprocal coordinates:
            Coordinates               Weight
  0.000000  0.000000  0.000000      1.000000
  0.125000  0.000000  0.000000      8.000000
  0.250000  0.000000  0.000000      8.000000
  0.375000  0.000000  0.000000      8.000000
  0.500000  0.000000  0.000000      4.000000
  0.125000  0.125000  0.000000      6.000000
  0.250000  0.125000  0.000000     24.000000
  0.375000  0.125000  0.000000     24.000000
  0.500000  0.125000  0.000000     24.000000
 -0.375000  0.125000  0.000000     24.000000
 -0.250000  0.125000  0.000000     24.000000
 -0.125000  0.125000  0.000000     12.000000
  0.250000  0.250000  0.000000      6.000000
  0.375000  0.250000  0.000000     24.000000
  0.500000  0.250000  0.000000     24.000000
 -0.375000  0.250000  0.000000     24.000000
 -0.250000  0.250000  0.000000     12.000000
  0.375000  0.375000  0.000000      6.000000
  0.500000  0.375000  0.000000     24.000000
 -0.375000  0.375000  0.000000     12.000000
  0.500000  0.500000  0.000000      3.000000
  0.375000  0.250000  0.125000     24.000000
  0.500000  0.250000  0.125000     48.000000
 -0.375000  0.250000  0.125000     24.000000
  0.500000  0.375000  0.125000     24.000000
 -0.375000  0.375000  0.125000     48.000000
 -0.250000  0.375000  0.125000     24.000000
 -0.375000  0.500000  0.125000     12.000000
 -0.250000  0.500000  0.250000      6.000000
 
 Following cartesian coordinates:
            Coordinates               Weight
  0.000000  0.000000  0.000000      1.000000
 -0.015412  0.015412  0.015412      8.000000
 -0.030823  0.030823  0.030823      8.000000
 -0.046235  0.046235  0.046235      8.000000
 -0.061647  0.061647  0.061647      4.000000
  0.000000  0.000000  0.030823      6.000000
 -0.015412  0.015412  0.046235     24.000000
 -0.030823  0.030823  0.061647     24.000000
 -0.046235  0.046235  0.077058     24.000000
  0.061647 -0.061647 -0.030823     24.000000
  0.046235 -0.046235 -0.015412     24.000000
  0.030823 -0.030823  0.000000     12.000000
  0.000000  0.000000  0.061647      6.000000
 -0.015412  0.015412  0.077058     24.000000
 -0.030823  0.030823  0.092470     24.000000
  0.077058 -0.077058 -0.015412     24.000000
  0.061647 -0.061647  0.000000     12.000000
  0.000000  0.000000  0.092470      6.000000
 -0.015412  0.015412  0.107882     24.000000
  0.092470 -0.092470  0.000000     12.000000
  0.000000  0.000000  0.123293      3.000000
 -0.000000  0.030823  0.061647     24.000000
 -0.015412  0.046235  0.077058     48.000000
  0.092470 -0.061647 -0.030823     24.000000
  0.000000  0.030823  0.092470     24.000000
  0.107882 -0.077058 -0.015412     48.000000
  0.092470 -0.061647 -0.000000     24.000000
  0.123293 -0.092470  0.000000     12.000000
  0.123293 -0.061647  0.000000      6.000000
 


--------------------------------------------------------------------------------------------------------




 Dimension of arrays:
   k-points           NKPTS =     29   k-points in BZ     NKDIM =     29   number of bands    NBANDS=     23
   number of dos      NEDOS =    301   number of ions     NIONS =      4
   non local maximal  LDIM  =      6   non local SUM 2l+1 LMDIM =     18
   total plane-waves  NPLWV = 110592
   max r-space proj   IRMAX =      1   max aug-charges    IRDMAX=  39332
   dimension x,y,z NGX =    48 NGY =   48 NGZ =   48
   dimension x,y,z NGXF=    96 NGYF=   96 NGZF=   96
   support grid    NGXF=    96 NGYF=   96 NGZF=   96
   ions per type =               1   2   1
   NGX,Y,Z   is equivalent  to a cutoff of  13.91, 13.91, 13.91 a.u.
   NGXF,Y,Z  is equivalent  to a cutoff of  27.83, 27.83, 27.83 a.u.

 SYSTEM =  unknown system                          
 POSCAR =  Na Bi Rb                                

 Startparameter for this run:
   NWRITE =      2    write-flag & timer
   PREC   = acc       normal or accurate (medium, high low for compatibility)
   ISTART =      0    job   : 0-new  1-cont  2-samecut
   ICHARG =      2    charge: 1-file 2-atom 10-const
   ISPIN  =      1    spin polarized calculation?
   LNONCOLLINEAR =      F non collinear calculations
   LSORBIT =      F    spin-orbit coupling
   INIWAV =      1    electr: 0-lowe 1-rand  2-diag
   LASPH  =      F    aspherical Exc in radial PAW
   METAGGA=      F    non-selfconsistent MetaGGA calc.

 Electronic Relaxation 1
   ENCUT  =  520.0 eV  38.22 Ry    6.18 a.u.  10.66 10.66 10.66*2*pi/ulx,y,z
   ENINI  =  520.0     initial cutoff
   ENAUG  =  442.9 eV  augmentation charge cutoff
   NELM   =    150;   NELMIN=  5; NELMDL= -5     # of ELM steps 
   EDIFF  = 0.1E-07   stopping-criterion for ELM
   LREAL  =      F    real-space projection
   NLSPLINE    = F    spline interpolate recip. space projectors
   LCOMPAT=      F    compatible to vasp.4.4
   GGA_COMPAT  = T    GGA compatible to vasp.4.4-vasp.4.6
   LMAXPAW     = -100 max onsite density
   LMAXMIX     =    2 max onsite mixed and CHGCAR
   VOSKOWN=      0    Vosko Wilk Nusair interpolation
   ROPT   =    0.00000   0.00000   0.00000
 Ionic relaxation
   EDIFFG = 0.1E-06   stopping-criterion for IOM
   NSW    =      0    number of steps for IOM
   NBLOCK =      1;   KBLOCK =      1    inner block; outer block 
   IBRION =     -1    ionic relax: 0-MD 1-quasi-New 2-CG
   NFREE  =      0    steps in history (QN), initial steepest desc. (CG)
   ISIF   =      3    stress and relaxation
   IWAVPR =     10    prediction:  0-non 1-charg 2-wave 3-comb
   ISYM   =      2    0-nonsym 1-usesym 2-fastsym
   LCORR  =      T    Harris-Foulkes like correction to forces

   POTIM  = 0.5000    time-step for ionic-motion
   TEIN   =    0.0    initial temperature
   TEBEG  =    0.0;   TEEND  =   0.0 temperature during run
   SMASS  =  -3.00    Nose mass-parameter (am)
   estimated Nose-frequenzy (Omega)   =  0.10E-29 period in steps =****** mass=  -0.752E-27a.u.
   SCALEE = 1.0000    scale energy and forces
   NPACO  =    256;   APACO  = 16.0  distance and # of slots for P.C.
   PSTRESS=    0.0 pullay stress

  Mass of Ions in am
   POMASS = 208.98 22.99 85.47
  Ionic Valenz
   ZVAL   =  15.00  7.00  9.00
  Atomic Wigner-Seitz radii
   RWIGS  =  -1.00 -1.00 -1.00
  virtual crystal weights 
   VCA    =   1.00  1.00  1.00
   NELECT =      38.0000    total number of electrons
   NUPDOWN=      -1.0000    fix difference up-down

 DOS related values:
   EMIN   =  10.00;   EMAX   =-10.00  energy-range for DOS
   EFERMI =   0.00
   ISMEAR =     0;   SIGMA  =   0.05  broadening in eV -4-tet -1-fermi 0-gaus

 Electronic relaxation 2 (details)
   IALGO  =     38    algorithm
   LDIAG  =      T    sub-space diagonalisation (order eigenvalues)
   LSUBROT=      F    optimize rotation matrix (better conditioning)
   TURBO    =      0    0=normal 1=particle mesh
   IRESTART =      0    0=no restart 2=restart with 2 vectors
   NREBOOT  =      0    no. of reboots
   NMIN     =      0    reboot dimension
   EREF     =   0.00    reference energy to select bands
   IMIX   =      4    mixing-type and parameters
     AMIX     =   0.40;   BMIX     =  1.00
     AMIX_MAG =   1.60;   BMIX_MAG =  1.00
     AMIN     =   0.10
     WC   =   100.;   INIMIX=   1;  MIXPRE=   1;  MAXMIX= -45

 Intra band minimization:
   WEIMIN = 0.0000     energy-eigenvalue tresh-hold
   EBREAK =  0.11E-09  absolut break condition
   DEPER  =   0.30     relativ break condition  

   TIME   =   0.40     timestep for ELM

  volume/ion in A,a.u.               =      33.35       225.04
  Fermi-wavevector in a.u.,A,eV,Ry     =   1.077199  2.035611 15.787626  1.160358
  Thomas-Fermi vector in A             =   2.213104
 
 Write flags
   LWAVE        =      F    write WAVECAR
   LDOWNSAMPLE  =      F    k-point downsampling of WAVECAR
   LCHARG       =      F    write CHGCAR
   LVTOT        =      F    write LOCPOT, total local potential
   LVHAR        =      F    write LOCPOT, Hartree potential only
   LELF         =      F    write electronic localiz. function (ELF)
   LORBIT       =      0    0 simple, 1 ext, 2 COOP (PROOUT), +10 PAW based schemes


 Dipole corrections
   LMONO  =      F    monopole corrections only (constant potential shift)
   LDIPOL =      F    correct potential (dipole corrections)
   IDIPOL =      0    1-x, 2-y, 3-z, 4-all directions 
   EPSILON=  1.0000000 bulk dielectric constant

 Exchange correlation treatment:
   GGA     =    PE    GGA type
   LEXCH   =     8    internal setting for exchange type
   VOSKOWN=      0    Vosko Wilk Nusair interpolation
   LHFCALC =     F    Hartree Fock is set to
   LHFONE  =     F    Hartree Fock one center treatment
   AEXX    =    0.0000 exact exchange contribution

 Linear response parameters
   LEPSILON=     F    determine dielectric tensor
   LRPA    =     F    only Hartree local field effects (RPA)
   LNABLA  =     F    use nabla operator in PAW spheres
   LVEL    =     F    velocity operator in full k-point grid
   LINTERFAST=   F  fast interpolation
   KINTER  =     0    interpolate to denser k-point grid
   CSHIFT  =0.1000    complex shift for real part using Kramers Kronig
   OMEGAMAX=  -1.0    maximum frequency
   DEG_THRESHOLD= 0.2000000E-02 threshold for treating states as degnerate
   RTIME   =   -0.100 relaxation time in fs
  (WPLASMAI=    0.000 imaginary part of plasma frequency in eV, 0.658/RTIME)
   DFIELD  = 0.0000000 0.0000000 0.0000000 field for delta impulse in time
 
 Orbital magnetization related:
   ORBITALMAG=     F  switch on orbital magnetization
   LCHIMAG   =     F  perturbation theory with respect to B field
   DQ        =  0.001000  dq finite difference perturbation B field
   LLRAUG    =     F  two centre corrections for induced B field



--------------------------------------------------------------------------------------------------------


 Static calculation
 charge density and potential will be updated during run
 non-spin polarized calculation
 Variant of blocked Davidson
 Davidson routine will perform the subspace rotation
 perform sub-space diagonalisation
    after iterative eigenvector-optimisation
 modified Broyden-mixing scheme, WC =      100.0
 initial mixing is a Kerker type mixing with AMIX =  0.4000 and BMIX =      1.0000
 Hartree-type preconditioning will be used
 using additional bands            4
 reciprocal scheme for non local part
 use partial core corrections
 calculate Harris-corrections to forces 
   (improved forces if not selfconsistent)
 use gradient corrections 
 use of overlap-Matrix (Vanderbilt PP)
 Gauss-broadening in eV      SIGMA  =   0.05


--------------------------------------------------------------------------------------------------------


  energy-cutoff  :      520.00
  volume of cell :      133.39
      direct lattice vectors                 reciprocal lattice vectors
     0.000000000  4.055366141  4.055366141    -0.123293430  0.123293430  0.123293430
     4.055366141  0.000000000  4.055366141     0.123293430 -0.123293430  0.123293430
     4.055366141  4.055366141  0.000000000     0.123293430  0.123293430 -0.123293430

  length of vectors
     5.735153797  5.735153797  5.735153797     0.213550484  0.213550484  0.213550484


 
 k-points in units of 2pi/SCALE and weight: KPOINTS                                 
   0.00000000  0.00000000  0.00000000       0.002
  -0.01541168  0.01541168  0.01541168       0.016
  -0.03082336  0.03082336  0.03082336       0.016
  -0.04623504  0.04623504  0.04623504       0.016
  -0.06164671  0.06164671  0.06164671       0.008
   0.00000000  0.00000000  0.03082336       0.012
  -0.01541168  0.01541168  0.04623504       0.047
  -0.03082336  0.03082336  0.06164671       0.047
  -0.04623504  0.04623504  0.07705839       0.047
   0.06164671 -0.06164671 -0.03082336       0.047
   0.04623504 -0.04623504 -0.01541168       0.047
   0.03082336 -0.03082336  0.00000000       0.023
   0.00000000  0.00000000  0.06164671       0.012
  -0.01541168  0.01541168  0.07705839       0.047
  -0.03082336  0.03082336  0.09247007       0.047
   0.07705839 -0.07705839 -0.01541168       0.047
   0.06164671 -0.06164671  0.00000000       0.023
   0.00000000  0.00000000  0.09247007       0.012
  -0.01541168  0.01541168  0.10788175       0.047
   0.09247007 -0.09247007  0.00000000       0.023
   0.00000000  0.00000000  0.12329343       0.006
  -0.00000000  0.03082336  0.06164671       0.047
  -0.01541168  0.04623504  0.07705839       0.094
   0.09247007 -0.06164671 -0.03082336       0.047
   0.00000000  0.03082336  0.09247007       0.047
   0.10788175 -0.07705839 -0.01541168       0.094
   0.09247007 -0.06164671 -0.00000000       0.047
   0.12329343 -0.09247007  0.00000000       0.023
   0.12329343 -0.06164671  0.00000000       0.012
 
 k-points in reciprocal lattice and weights: KPOINTS                                 
   0.00000000  0.00000000  0.00000000       0.002
   0.12500000  0.00000000  0.00000000       0.016
   0.25000000  0.00000000  0.00000000       0.016
   0.37500000  0.00000000  0.00000000       0.016
   0.50000000  0.00000000  0.00000000       0.008
   0.12500000  0.12500000  0.00000000       0.012
   0.25000000  0.12500000  0.00000000       0.047
   0.37500000  0.12500000  0.00000000       0.047
   0.50000000  0.12500000  0.00000000       0.047
  -0.37500000  0.12500000  0.00000000       0.047
  -0.25000000  0.12500000  0.00000000       0.047
  -0.12500000  0.12500000  0.00000000       0.023
   0.25000000  0.25000000  0.00000000       0.012
   0.37500000  0.25000000  0.00000000       0.047
   0.50000000  0.25000000  0.00000000       0.047
  -0.37500000  0.25000000  0.00000000       0.047
  -0.25000000  0.25000000  0.00000000       0.023
   0.37500000  0.37500000  0.00000000       0.012
   0.50000000  0.37500000  0.00000000       0.047
  -0.37500000  0.37500000  0.00000000       0.023
   0.50000000  0.50000000  0.00000000       0.006
   0.37500000  0.25000000  0.12500000       0.047
   0.50000000  0.25000000  0.12500000       0.094
  -0.37500000  0.25000000  0.12500000       0.047
   0.50000000  0.37500000  0.12500000       0.047
  -0.37500000  0.37500000  0.12500000       0.094
  -0.25000000  0.37500000  0.12500000       0.047
  -0.37500000  0.50000000  0.12500000       0.023
  -0.25000000  0.50000000  0.25000000       0.012
 
 position of ions in fractional coordinates (direct lattice) 
   0.25000019  0.25000019  0.25000019
   0.00000000  0.00000000  0.00000000
   0.50000038  0.50000038  0.50000038
   0.74999931  0.74999931  0.74999931
 
 position of ions in cartesian coordinates  (Angst):
   2.02768459  2.02768459  2.02768459
   0.00000000  0.00000000  0.00000000
   4.05536918  4.05536918  4.05536918
   6.08304363  6.08304363  6.08304363
 


--------------------------------------------------------------------------------------------------------


 k-point  1 :   0.0000 0.0000 0.0000  plane waves:    3647
 k-point  2 :   0.1250 0.0000 0.0000  plane waves:    3605
 k-point  3 :   0.2500 0.0000 0.0000  plane waves:    3602
 k-point  4 :   0.3750 0.0000 0.0000  plane waves:    3597
 k-point  5 :   0.5000 0.0000 0.0000  plane waves:    3600
 k-point  6 :   0.1250 0.1250 0.0000  plane waves:    3599
 k-point  7 :   0.2500 0.1250 0.0000  plane waves:    3601
 k-point  8 :   0.3750 0.1250 0.0000  plane waves:    3596
 k-point  9 :   0.5000 0.1250 0.0000  plane waves:    3594
 k-point 10 :  -0.3750 0.1250 0.0000  plane waves:    3590
 k-point 11 :  -0.2500 0.1250 0.0000  plane waves:    3598
 k-point 12 :  -0.1250 0.1250 0.0000  plane waves:    3601
 k-point 13 :   0.2500 0.2500 0.0000  plane waves:    3591
 k-point 14 :   0.3750 0.2500 0.0000  plane waves:    3582
 k-point 15 :   0.5000 0.2500 0.0000  plane waves:    3586
 k-point 16 :  -0.3750 0.2500 0.0000  plane waves:    3595
 k-point 17 :  -0.2500 0.2500 0.0000  plane waves:    3583
 k-point 18 :   0.3750 0.3750 0.0000  plane waves:    3579
 k-point 19 :   0.5000 0.3750 0.0000  plane waves:    3585
 k-point 20 :  -0.3750 0.3750 0.0000  plane waves:    3580
 k-point 21 :   0.5000 0.5000 0.0000  plane waves:    3572
 k-point 22 :   0.3750 0.2500 0.1250  plane waves:    3598
 k-point 23 :   0.5000 0.2500 0.1250  plane waves:    3591
 k-point 24 :  -0.3750 0.2500 0.1250  plane waves:    3600
 k-point 25 :   0.5000 0.3750 0.1250  plane waves:    3589
 k-point 26 :  -0.3750 0.3750 0.1250  plane waves:    3591
 k-point 27 :  -0.2500 0.3750 0.1250  plane waves:    3589
 k-point 28 :  -0.3750 0.5000 0.1250  plane waves:    3576
 k-point 29 :  -0.2500 0.5000 0.2500  plane waves:    3636

 maximum and minimum number of plane-waves per node :       529      501

 maximum number of plane-waves:      3647
 maximum index in each direction: 
   IXMAX=   11   IYMAX=   10   IZMAX=   10
   IXMIN=  -11   IYMIN=  -11   IZMIN=  -10


 parallel 3D FFT for wavefunctions:
    minimum data exchange during FFTs selected (reduces bandwidth)
 parallel 3D FFT for charge:
    minimum data exchange during FFTs selected (reduces bandwidth)


 total amount of memory used by VASP MPI-rank0    56391. kBytes
=======================================================================

   base      :      30000. kBytes
   nonl-proj :       6648. kBytes
   fftplans  :       4865. kBytes
   grid      :       9037. kBytes
   one-center:         15. kBytes
   wavefun   :       5826. kBytes
 
     INWAV:  cpu time    0.0000: real time    0.0000
 Broyden mixing: mesh for mixing (old mesh)
   NGX = 21   NGY = 21   NGZ = 21
  (NGX  = 96   NGY  = 96   NGZ  = 96)
  gives a total of   9261 points

 initial charge density was supplied:
 charge density of overlapping atoms calculated
 number of electron      38.0000000 magnetization 
 keeping initial charge density in first step


--------------------------------------------------------------------------------------------------------


 Maximum index for augmentation-charges         5420 (set IRDMAX)


--------------------------------------------------------------------------------------------------------


 First call to EWALD:  gamma=   0.347
 Maximum number of real-space cells 3x 3x 3
 Maximum number of reciprocal cells 3x 3x 3

    FEWALD:  cpu time    0.0015: real time    0.0015


--------------------------------------- Iteration      1(   1)  ---------------------------------------


    POTLOK:  cpu time    0.0812: real time    0.0831
    SETDIJ:  cpu time    0.0075: real time    0.0075
     EDDAV:  cpu time    0.4258: real time    0.4262
       DOS:  cpu time    0.0006: real time    0.0006
    --------------------------------------------
      LOOP:  cpu time    0.5151: real time    0.5175

 eigenvalue-minimisations  :  1366
 total energy-change (2. order) : 0.3759989E+03  (-0.1957067E+04)
 number of electron      38.0000000 magnetization 
 augmentation part       38.0000000 magnetization 

 Free energy of the ion-electron system (eV)
  ---------------------------------------------------
  alpha Z        PSCENC =       106.83457713
  Ewald energy   TEWEN  =     -2478.64097261
  -Hartree energ DENC   =     -1198.85411072
  -exchange      EXHF   =         0.00000000
  -V(xc)+E(xc)   XCENC  =       127.03857069
  PAW double counting   =      3185.16912008    -3328.20531600
  entropy T*S    EENTRO =        -0.00170732
  eigenvalues    EBANDS =      -191.12859580
  atomic energy  EATOM  =      4153.78731487
  Solvation  Ediel_sol  =         0.00000000
  ---------------------------------------------------
  free energy    TOTEN  =       375.99888032 eV

  energy without entropy =      376.00058764  energy(sigma->0) =      375.99973398


--------------------------------------------------------------------------------------------------------




--------------------------------------- Iteration      1(   2)  ---------------------------------------


     EDDAV:  cpu time    0.4056: real time    0.4080
       DOS:  cpu time    0.0005: real time    0.0005
    --------------------------------------------
      LOOP:  cpu time    0.4061: real time    0.4085

 eigenvalue-minimisations  :  1390
 total energy-change (2. order) :-0.3496585E+03  (-0.3458501E+03)
 number of electron      38.0000000 magnetization 
 augmentation part       38.0000000 magnetization 

 Free energy of the ion-electron system (eV)
  ---------------------------------------------------
  alpha Z        PSCENC =       106.83457713
  Ewald energy   TEWEN  =     -2478.64097261
  -Hartree energ DENC   =     -1198.85411072
  -exchange      EXHF   =         0.00000000
  -V(xc)+E(xc)   XCENC  =       127.03857069
  PAW double counting   =      3185.16912008    -3328.20531600
  entropy T*S    EENTRO =        -0.00138609
  eigenvalues    EBANDS =      -540.78740968
  atomic energy  EATOM  =      4153.78731487
  Solvation  Ediel_sol  =         0.00000000
  ---------------------------------------------------
  free energy    TOTEN  =        26.34038767 eV

  energy without entropy =       26.34177376  energy(sigma->0) =       26.34108071


--------------------------------------------------------------------------------------------------------




--------------------------------------- Iteration      1(   3)  ---------------------------------------


     EDDAV:  cpu time    0.5643: real time    0.5647
       DOS:  cpu time    0.0003: real time    0.0003
    --------------------------------------------
      LOOP:  cpu time    0.5646: real time    0.5650

 eigenvalue-minimisations  :  2106
 total energy-change (2. order) :-0.3478775E+02  (-0.3432827E+02)
 number of electron      38.0000000 magnetization 
 augmentation part       38.0000000 magnetization 

 Free energy of the ion-electron system (eV)
  ---------------------------------------------------
  alpha Z        PSCENC =       106.83457713
  Ewald energy   TEWEN  =     -2478.64097261
  -Hartree energ DENC   =     -1198.85411072
  -exchange      EXHF   =         0.00000000
  -V(xc)+E(xc)   XCENC  =       127.03857069
  PAW double counting   =      3185.16912008    -3328.20531600
  entropy T*S    EENTRO =        -0.00000000
  eigenvalues    EBANDS =      -575.57654303
  atomic energy  EATOM  =      4153.78731487
  Solvation  Ediel_sol  =         0.00000000
  ---------------------------------------------------
  free energy    TOTEN  =        -8.44735959 eV

  energy without entropy =       -8.44735959  energy(sigma->0) =       -8.44735959


--------------------------------------------------------------------------------------------------------




--------------------------------------- Iteration      1(   4)  ---------------------------------------


     EDDAV:  cpu time    0.4766: real time    0.4779
       DOS:  cpu time    0.0003: real time    0.0003
    --------------------------------------------
      LOOP:  cpu time    0.4769: real time    0.4782

 eigenvalue-minimisations  :  1661
 total energy-change (2. order) :-0.8990339E+00  (-0.8987174E+00)
 number of electron      38.0000000 magnetization 
 augmentation part       38.0000000 magnetization 

 Free energy of the ion-electron system (eV)
  ---------------------------------------------------
  alpha Z        PSCENC =       106.83457713
  Ewald energy   TEWEN  =     -2478.64097261
  -Hartree energ DENC   =     -1198.85411072
  -exchange      EXHF   =         0.00000000
  -V(xc)+E(xc)   XCENC  =       127.03857069
  PAW double counting   =      3185.16912008    -3328.20531600
  entropy T*S    EENTRO =        -0.00000000
  eigenvalues    EBANDS =      -576.47557697
  atomic energy  EATOM  =      4153.78731487
  Solvation  Ediel_sol  =         0.00000000
  ---------------------------------------------------
  free energy    TOTEN  =        -9.34639353 eV

  energy without entropy =       -9.34639353  energy(sigma->0) =       -9.34639353


--------------------------------------------------------------------------------------------------------




--------------------------------------- Iteration      1(   5)  ---------------------------------------


     EDDAV:  cpu time    0.6075: real time    0.6080
       DOS:  cpu time    0.0003: real time    0.0003
    CHARGE:  cpu time    0.0565: real time    0.0566
    MIXING:  cpu time    0.0049: real time    0.0049
    --------------------------------------------
      LOOP:  cpu time    0.6692: real time    0.6697

 eigenvalue-minimisations  :  2301
 total energy-change (2. order) :-0.3949421E-01  (-0.3949315E-01)
 number of electron      37.9999999 magnetization 
 augmentation part       14.5369528 magnetization 

 Broyden mixing:
  rms(total) = 0.34741E+00    rms(broyden)= 0.34741E+00
  rms(prec ) = 0.84296E+00
  weight for this iteration     100.00

 Free energy of the ion-electron system (eV)
  ---------------------------------------------------
  alpha Z        PSCENC =       106.83457713
  Ewald energy   TEWEN  =     -2478.64097261
  -Hartree energ DENC   =     -1198.85411072
  -exchange      EXHF   =         0.00000000
  -V(xc)+E(xc)   XCENC  =       127.03857069
  PAW double counting   =      3185.16912008    -3328.20531600
  entropy T*S    EENTRO =        -0.00000000
  eigenvalues    EBANDS =      -576.51507118
  atomic energy  EATOM  =      4153.78731487
  Solvation  Ediel_sol  =         0.00000000
  ---------------------------------------------------
  free energy    TOTEN  =        -9.38588774 eV

  energy without entropy =       -9.38588774  energy(sigma->0) =       -9.38588774


--------------------------------------------------------------------------------------------------------




--------------------------------------- Iteration      1(   6)  ---------------------------------------


    POTLOK:  cpu time    0.0800: real time    0.0803
    SETDIJ:  cpu time    0.0074: real time    0.0074
     EDDAV:  cpu time    0.4801: real time    0.4811
       DOS:  cpu time    0.0006: real time    0.0006
    CHARGE:  cpu time    0.0557: real time    0.0557
    MIXING:  cpu time    0.0053: real time    0.0053
    --------------------------------------------
      LOOP:  cpu time    0.6291: real time    0.6304

 eigenvalue-minimisations  :  1720
 total energy-change (2. order) : 0.4040808E+00  (-0.8639615E-01)
 number of electron      37.9999999 magnetization 
 augmentation part       14.5790782 magnetization 

 Broyden mixing:
  rms(total) = 0.23033E+00    rms(broyden)= 0.23033E+00
  rms(prec ) = 0.42181E+00
  weight for this iteration     100.00

 eigenvalues of (default mixing * dielectric matrix)
  average eigenvalue GAMMA=   2.1160
  2.1160

 Free energy of the ion-electron system (eV)
  ---------------------------------------------------
  alpha Z        PSCENC =       106.83457713
  Ewald energy   TEWEN  =     -2478.64097261
  -Hartree energ DENC   =     -1199.36509869
  -exchange      EXHF   =         0.00000000
  -V(xc)+E(xc)   XCENC  =       127.04108818
  PAW double counting   =      3252.81372690    -3397.97930073
  entropy T*S    EENTRO =        -0.00011529
  eigenvalues    EBANDS =      -573.47302673
  atomic energy  EATOM  =      4153.78731487
  Solvation  Ediel_sol  =         0.00000000
  ---------------------------------------------------
  free energy    TOTEN  =        -8.98180697 eV

  energy without entropy =       -8.98169169  energy(sigma->0) =       -8.98174933


--------------------------------------------------------------------------------------------------------




--------------------------------------- Iteration      1(   7)  ---------------------------------------


    POTLOK:  cpu time    0.0823: real time    0.0837
    SETDIJ:  cpu time    0.0049: real time    0.0049
     EDDAV:  cpu time    0.5067: real time    0.5068
       DOS:  cpu time    0.0006: real time    0.0006
    CHARGE:  cpu time    0.0534: real time    0.0535
    MIXING:  cpu time    0.0041: real time    0.0041
    --------------------------------------------
      LOOP:  cpu time    0.6519: real time    0.6535

 eigenvalue-minimisations  :  1848
 total energy-change (2. order) : 0.7875804E-01  (-0.4926008E-01)
 number of electron      37.9999999 magnetization 
 augmentation part       14.6164145 magnetization 

 Broyden mixing:
  rms(total) = 0.11124E+00    rms(broyden)= 0.11124E+00
  rms(prec ) = 0.14667E+00
  weight for this iteration     100.00

 eigenvalues of (default mixing * dielectric matrix)
  average eigenvalue GAMMA=   2.1458
  2.1458  2.1458

 Free energy of the ion-electron system (eV)
  ---------------------------------------------------
  alpha Z        PSCENC =       106.83457713
  Ewald energy   TEWEN  =     -2478.64097261
  -Hartree energ DENC   =     -1197.04592877
  -exchange      EXHF   =         0.00000000
  -V(xc)+E(xc)   XCENC  =       126.98233278
  PAW double counting   =      3298.99592599    -3445.43727699
  entropy T*S    EENTRO =        -0.00015231
  eigenvalues    EBANDS =      -574.37886903
  atomic energy  EATOM  =      4153.78731487
  Solvation  Ediel_sol  =         0.00000000
  ---------------------------------------------------
  free energy    TOTEN  =        -8.90304894 eV

  energy without entropy =       -8.90289663  energy(sigma->0) =       -8.90297278


--------------------------------------------------------------------------------------------------------




--------------------------------------- Iteration      1(   8)  ---------------------------------------


    POTLOK:  cpu time    0.0815: real time    0.0819
    SETDIJ:  cpu time    0.0049: real time    0.0049
     EDDAV:  cpu time    0.4730: real time    0.4733
       DOS:  cpu time    0.0005: real time    0.0005
    CHARGE:  cpu time    0.0529: real time    0.0529
    MIXING:  cpu time    0.0041: real time    0.0041
    --------------------------------------------
      LOOP:  cpu time    0.6169: real time    0.6177

 eigenvalue-minimisations  :  1591
 total energy-change (2. order) :-0.3575323E-02  (-0.5772690E-02)
 number of electron      37.9999999 magnetization 
 augmentation part       14.6113036 magnetization 

 Broyden mixing:
  rms(total) = 0.19557E-01    rms(broyden)= 0.19557E-01
  rms(prec ) = 0.42284E-01
  weight for this iteration     100.00

 eigenvalues of (default mixing * dielectric matrix)
  average eigenvalue GAMMA=   1.8930
  2.5990  1.5400  1.5400

 Free energy of the ion-electron system (eV)
  ---------------------------------------------------
  alpha Z        PSCENC =       106.83457713
  Ewald energy   TEWEN  =     -2478.64097261
  -Hartree energ DENC   =     -1194.54142861
  -exchange      EXHF   =         0.00000000
  -V(xc)+E(xc)   XCENC  =       126.93799754
  PAW double counting   =      3300.38659576    -3446.14617152
  entropy T*S    EENTRO =        -0.00015263
  eigenvalues    EBANDS =      -577.52438419
  atomic energy  EATOM  =      4153.78731487
  Solvation  Ediel_sol  =         0.00000000
  ---------------------------------------------------
  free energy    TOTEN  =        -8.90662426 eV

  energy without entropy =       -8.90647163  energy(sigma->0) =       -8.90654795


--------------------------------------------------------------------------------------------------------




--------------------------------------- Iteration      1(   9)  ---------------------------------------


    POTLOK:  cpu time    0.0813: real time    0.0818
    SETDIJ:  cpu time    0.0049: real time    0.0049
     EDDAV:  cpu time    0.4604: real time    0.4605
       DOS:  cpu time    0.0005: real time    0.0005
    CHARGE:  cpu time    0.0531: real time    0.0531
    MIXING:  cpu time    0.0042: real time    0.0042
    --------------------------------------------
      LOOP:  cpu time    0.6045: real time    0.6050

 eigenvalue-minimisations  :  1607
 total energy-change (2. order) : 0.3899877E-03  (-0.1391816E-02)
 number of electron      37.9999999 magnetization 
 augmentation part       14.6136176 magnetization 

 Broyden mixing:
  rms(total) = 0.97282E-02    rms(broyden)= 0.97282E-02
  rms(prec ) = 0.22476E-01
  weight for this iteration     100.00

 eigenvalues of (default mixing * dielectric matrix)
  average eigenvalue GAMMA=   1.8244
  2.8596  1.1972  1.1972  2.0438

 Free energy of the ion-electron system (eV)
  ---------------------------------------------------
  alpha Z        PSCENC =       106.83457713
  Ewald energy   TEWEN  =     -2478.64097261
  -Hartree energ DENC   =     -1195.33208088
  -exchange      EXHF   =         0.00000000
  -V(xc)+E(xc)   XCENC  =       126.97349737
  PAW double counting   =      3311.25967478    -3456.97318117
  entropy T*S    EENTRO =        -0.00015224
  eigenvalues    EBANDS =      -576.81491153
  atomic energy  EATOM  =      4153.78731487
  Solvation  Ediel_sol  =         0.00000000
  ---------------------------------------------------
  free energy    TOTEN  =        -8.90623427 eV

  energy without entropy =       -8.90608203  energy(sigma->0) =       -8.90615815


--------------------------------------------------------------------------------------------------------




--------------------------------------- Iteration      1(  10)  ---------------------------------------


    POTLOK:  cpu time    0.0811: real time    0.0815
    SETDIJ:  cpu time    0.0050: real time    0.0050
     EDDAV:  cpu time    0.4845: real time    0.4847
       DOS:  cpu time    0.0006: real time    0.0006
    CHARGE:  cpu time    0.0537: real time    0.0537
    MIXING:  cpu time    0.0040: real time    0.0040
    --------------------------------------------
      LOOP:  cpu time    0.6288: real time    0.6296

 eigenvalue-minimisations  :  1831
 total energy-change (2. order) : 0.2396813E-03  (-0.2165995E-03)
 number of electron      37.9999999 magnetization 
 augmentation part       14.6120336 magnetization 

 Broyden mixing:
  rms(total) = 0.16451E-02    rms(broyden)= 0.16451E-02
  rms(prec ) = 0.23563E-02
  weight for this iteration     100.00

 eigenvalues of (default mixing * dielectric matrix)
  average eigenvalue GAMMA=   1.8552
  2.7211  2.3663  1.7883  1.1046  1.2958

 Free energy of the ion-electron system (eV)
  ---------------------------------------------------
  alpha Z        PSCENC =       106.83457713
  Ewald energy   TEWEN  =     -2478.64097261
  -Hartree energ DENC   =     -1195.23671385
  -exchange      EXHF   =         0.00000000
  -V(xc)+E(xc)   XCENC  =       126.97394070
  PAW double counting   =      3309.83210066    -3455.36825266
  entropy T*S    EENTRO =        -0.00015239
  eigenvalues    EBANDS =      -577.08783645
  atomic energy  EATOM  =      4153.78731487
  Solvation  Ediel_sol  =         0.00000000
  ---------------------------------------------------
  free energy    TOTEN  =        -8.90599459 eV

  energy without entropy =       -8.90584220  energy(sigma->0) =       -8.90591840


--------------------------------------------------------------------------------------------------------




--------------------------------------- Iteration      1(  11)  ---------------------------------------


    POTLOK:  cpu time    0.0811: real time    0.0815
    SETDIJ:  cpu time    0.0052: real time    0.0052
     EDDAV:  cpu time    0.4700: real time    0.4701
       DOS:  cpu time    0.0006: real time    0.0006
    CHARGE:  cpu time    0.0569: real time    0.0570
    MIXING:  cpu time    0.0048: real time    0.0048
    --------------------------------------------
      LOOP:  cpu time    0.6186: real time    0.6193

 eigenvalue-minimisations  :  1696
 total energy-change (2. order) :-0.1544356E-04  (-0.9665342E-05)
 number of electron      37.9999999 magnetization 
 augmentation part       14.6120617 magnetization 

 Broyden mixing:
  rms(total) = 0.10250E-02    rms(broyden)= 0.10250E-02
  rms(prec ) = 0.23124E-02
  weight for this iteration     100.00

 eigenvalues of (default mixing * dielectric matrix)
  average eigenvalue GAMMA=   1.7817
  2.8100  2.6658  2.0323  1.1624  1.1624  0.8573

 Free energy of the ion-electron system (eV)
  ---------------------------------------------------
  alpha Z        PSCENC =       106.83457713
  Ewald energy   TEWEN  =     -2478.64097261
  -Hartree energ DENC   =     -1195.17099333
  -exchange      EXHF   =         0.00000000
  -V(xc)+E(xc)   XCENC  =       126.97194696
  PAW double counting   =      3310.84311832    -3456.37615952
  entropy T*S    EENTRO =        -0.00015240
  eigenvalues    EBANDS =      -577.15468945
  atomic energy  EATOM  =      4153.78731487
  Solvation  Ediel_sol  =         0.00000000
  ---------------------------------------------------
  free energy    TOTEN  =        -8.90601003 eV

  energy without entropy =       -8.90585764  energy(sigma->0) =       -8.90593384


--------------------------------------------------------------------------------------------------------




--------------------------------------- Iteration      1(  12)  ---------------------------------------


    POTLOK:  cpu time    0.0826: real time    0.0840
    SETDIJ:  cpu time    0.0061: real time    0.0061
     EDDAV:  cpu time    0.4653: real time    0.4656
       DOS:  cpu time    0.0005: real time    0.0005
    CHARGE:  cpu time    0.0549: real time    0.0549
    MIXING:  cpu time    0.0038: real time    0.0038
    --------------------------------------------
      LOOP:  cpu time    0.6132: real time    0.6149

 eigenvalue-minimisations  :  1654
 total energy-change (2. order) : 0.2622291E-05  (-0.2275435E-05)
 number of electron      37.9999999 magnetization 
 augmentation part       14.6122003 magnetization 

 Broyden mixing:
  rms(total) = 0.14814E-03    rms(broyden)= 0.14814E-03
  rms(prec ) = 0.25336E-03
  weight for this iteration     100.00

 eigenvalues of (default mixing * dielectric matrix)
  average eigenvalue GAMMA=   1.7349
  3.0303  2.5563  1.9671  1.3599  1.0642  1.0833  1.0833

 Free energy of the ion-electron system (eV)
  ---------------------------------------------------
  alpha Z        PSCENC =       106.83457713
  Ewald energy   TEWEN  =     -2478.64097261
  -Hartree energ DENC   =     -1195.19101817
  -exchange      EXHF   =         0.00000000
  -V(xc)+E(xc)   XCENC  =       126.97258915
  PAW double counting   =      3311.35261803    -3456.89836083
  entropy T*S    EENTRO =        -0.00015238
  eigenvalues    EBANDS =      -577.12260259
  atomic energy  EATOM  =      4153.78731487
  Solvation  Ediel_sol  =         0.00000000
  ---------------------------------------------------
  free energy    TOTEN  =        -8.90600741 eV

  energy without entropy =       -8.90585503  energy(sigma->0) =       -8.90593122


--------------------------------------------------------------------------------------------------------




--------------------------------------- Iteration      1(  13)  ---------------------------------------


    POTLOK:  cpu time    0.0816: real time    0.0821
    SETDIJ:  cpu time    0.0052: real time    0.0052
     EDDAV:  cpu time    0.4941: real time    0.4942
       DOS:  cpu time    0.0006: real time    0.0006
    CHARGE:  cpu time    0.0533: real time    0.0533
    MIXING:  cpu time    0.0044: real time    0.0044
    --------------------------------------------
      LOOP:  cpu time    0.6391: real time    0.6397

 eigenvalue-minimisations  :  1898
 total energy-change (2. order) :-0.2713850E-06  (-0.9858418E-07)
 number of electron      37.9999999 magnetization 
 augmentation part       14.6121802 magnetization 

 Broyden mixing:
  rms(total) = 0.63747E-04    rms(broyden)= 0.63746E-04
  rms(prec ) = 0.10676E-03
  weight for this iteration     100.00

 eigenvalues of (default mixing * dielectric matrix)
  average eigenvalue GAMMA=   1.7910
  2.8839  2.8839  2.1283  2.0300  1.2312  1.0815  1.0444  1.0444

 Free energy of the ion-electron system (eV)
  ---------------------------------------------------
  alpha Z        PSCENC =       106.83457713
  Ewald energy   TEWEN  =     -2478.64097261
  -Hartree energ DENC   =     -1195.19425010
  -exchange      EXHF   =         0.00000000
  -V(xc)+E(xc)   XCENC  =       126.97282051
  PAW double counting   =      3311.33307966    -3456.88017577
  entropy T*S    EENTRO =        -0.00015238
  eigenvalues    EBANDS =      -577.11824899
  atomic energy  EATOM  =      4153.78731487
  Solvation  Ediel_sol  =         0.00000000
  ---------------------------------------------------
  free energy    TOTEN  =        -8.90600768 eV

  energy without entropy =       -8.90585530  energy(sigma->0) =       -8.90593149


--------------------------------------------------------------------------------------------------------




--------------------------------------- Iteration      1(  14)  ---------------------------------------


    POTLOK:  cpu time    0.0812: real time    0.0816
    SETDIJ:  cpu time    0.0050: real time    0.0050
     EDDAV:  cpu time    0.4739: real time    0.4742
       DOS:  cpu time    0.0005: real time    0.0005
    CHARGE:  cpu time    0.0533: real time    0.0533
    MIXING:  cpu time    0.0043: real time    0.0043
    --------------------------------------------
      LOOP:  cpu time    0.6183: real time    0.6189

 eigenvalue-minimisations  :  1667
 total energy-change (2. order) :-0.1476128E-06  (-0.7012147E-08)
 number of electron      37.9999999 magnetization 
 augmentation part       14.6121797 magnetization 

 Broyden mixing:
  rms(total) = 0.17021E-04    rms(broyden)= 0.17021E-04
  rms(prec ) = 0.26284E-04
  weight for this iteration     100.00

 eigenvalues of (default mixing * dielectric matrix)
  average eigenvalue GAMMA=   1.7213
  3.0185  2.5341  2.0407  2.0407  1.3723  1.3723  0.9957  1.0585  1.0585

 Free energy of the ion-electron system (eV)
  ---------------------------------------------------
  alpha Z        PSCENC =       106.83457713
  Ewald energy   TEWEN  =     -2478.64097261
  -Hartree energ DENC   =     -1195.19760382
  -exchange      EXHF   =         0.00000000
  -V(xc)+E(xc)   XCENC  =       126.97297473
  PAW double counting   =      3311.28473253    -3456.83279506
  entropy T*S    EENTRO =        -0.00015238
  eigenvalues    EBANDS =      -577.11408323
  atomic energy  EATOM  =      4153.78731487
  Solvation  Ediel_sol  =         0.00000000
  ---------------------------------------------------
  free energy    TOTEN  =        -8.90600783 eV

  energy without entropy =       -8.90585545  energy(sigma->0) =       -8.90593164


--------------------------------------------------------------------------------------------------------




--------------------------------------- Iteration      1(  15)  ---------------------------------------


    POTLOK:  cpu time    0.0812: real time    0.0817
    SETDIJ:  cpu time    0.0048: real time    0.0048
     EDDAV:  cpu time    0.3403: real time    0.3404
       DOS:  cpu time    0.0005: real time    0.0005
    --------------------------------------------
      LOOP:  cpu time    0.4268: real time    0.4274

 eigenvalue-minimisations  :  1073
 total energy-change (2. order) :-0.1149601E-08  (-0.5331159E-09)
 number of electron      37.9999999 magnetization 
 augmentation part       14.6121797 magnetization 

 Free energy of the ion-electron system (eV)
  ---------------------------------------------------
  alpha Z        PSCENC =       106.83457713
  Ewald energy   TEWEN  =     -2478.64097261
  -Hartree energ DENC   =     -1195.19695648
  -exchange      EXHF   =         0.00000000
  -V(xc)+E(xc)   XCENC  =       126.97295098
  PAW double counting   =      3311.27664974    -3456.82426345
  entropy T*S    EENTRO =        -0.00015238
  eigenvalues    EBANDS =      -577.11515563
  atomic energy  EATOM  =      4153.78731487
  Solvation  Ediel_sol  =         0.00000000
  ---------------------------------------------------
  free energy    TOTEN  =        -8.90600783 eV

  energy without entropy =       -8.90585545  energy(sigma->0) =       -8.90593164


--------------------------------------------------------------------------------------------------------




 average (electrostatic) potential at core
  the test charge radii are     1.0856  0.9254  1.1097
  (the norm of the test charge is              1.0000)
       1-107.3143       2 -48.1832       3 -48.1832       4 -37.8999
 
 
 
 E-fermi :   2.1879     XC(G=0):  -7.9616     alpha+bet : -7.7781


 k-point     1 :       0.0000    0.0000    0.0000
  band No.  band energies     occupation 
      1     -25.6066      2.00000
      2     -22.3841      2.00000
      3     -22.3841      2.00000
      4     -22.3841      2.00000
      5     -22.3773      2.00000
      6     -22.3773      2.00000
      7     -22.3773      2.00000
      8     -19.1100      2.00000
      9     -19.1100      2.00000
     10     -19.1100      2.00000
     11     -19.1087      2.00000
     12     -19.1087      2.00000
     13      -9.7505      2.00000
     14      -9.7505      2.00000
     15      -9.7505      2.00000
     16      -7.2823      2.00000
     17       2.0110      2.00000
     18       2.1725      1.33593
     19       2.1725      1.33593
     20       2.1725      1.33569
     21       4.5399      0.00000
     22       4.5399      0.00000
     23       4.5399      0.00000

 k-point     2 :       0.1250    0.0000    0.0000
  band No.  band energies     occupation 
      1     -25.6065      2.00000
      2     -22.3838      2.00000
      3     -22.3838      2.00000
      4     -22.3838      2.00000
      5     -22.3776      2.00000
      6     -22.3776      2.00000
      7     -22.3775      2.00000
      8     -19.1101      2.00000
      9     -19.1100      2.00000
     10     -19.1100      2.00000
     11     -19.1087      2.00000
     12     -19.1087      2.00000
     13      -9.7616      2.00000
     14      -9.7508      2.00000
     15      -9.7508      2.00000
     16      -7.2507      2.00000
     17       1.2400      2.00000
     18       2.0643      1.99953
     19       2.0643      1.99953
     20       2.9150      0.00000
     21       4.6357      0.00000
     22       4.6989      0.00000
     23       4.6989      0.00000

 k-point     3 :       0.2500    0.0000    0.0000
  band No.  band energies     occupation 
      1     -25.6064      2.00000
      2     -22.3831      2.00000
      3     -22.3831      2.00000
      4     -22.3830      2.00000
      5     -22.3783      2.00000
      6     -22.3783      2.00000
      7     -22.3781      2.00000
      8     -19.1102      2.00000
      9     -19.1099      2.00000
     10     -19.1099      2.00000
     11     -19.1087      2.00000
     12     -19.1087      2.00000
     13      -9.7871      2.00000
     14      -9.7514      2.00000
     15      -9.7514      2.00000
     16      -7.1747      2.00000
     17       0.5450      2.00000
     18       1.8445      2.00000
     19       1.8445      2.00000
     20       3.3671      0.00000
     21       5.0907      0.00000
     22       5.0907      0.00000
     23       5.2397      0.00000

 k-point     4 :       0.3750    0.0000    0.0000
  band No.  band energies     occupation 
      1     -25.6063      2.00000
      2     -22.3820      2.00000
      3     -22.3820      2.00000
      4     -22.3819      2.00000
      5     -22.3794      2.00000
      6     -22.3794      2.00000
      7     -22.3790      2.00000
      8     -19.1104      2.00000
      9     -19.1099      2.00000
     10     -19.1099      2.00000
     11     -19.1087      2.00000
     12     -19.1087      2.00000
     13      -9.8113      2.00000
     14      -9.7520      2.00000
     15      -9.7519      2.00000
     16      -7.0986      2.00000
     17       0.0883      2.00000
     18       1.6629      2.00000
     19       1.6629      2.00000
     20       3.5346      0.00000
     21       5.5978      0.00000
     22       5.5978      0.00000
     23       6.1320      0.00000

 k-point     5 :       0.5000    0.0000    0.0000
  band No.  band energies     occupation 
      1     -25.6062      2.00000
      2     -22.3809      2.00000
      3     -22.3809      2.00000
      4     -22.3809      2.00000
      5     -22.3805      2.00000
      6     -22.3805      2.00000
      7     -22.3799      2.00000
      8     -19.1104      2.00000
      9     -19.1098      2.00000
     10     -19.1098      2.00000
     11     -19.1087      2.00000
     12     -19.1087      2.00000
     13      -9.8210      2.00000
     14      -9.7522      2.00000
     15      -9.7522      2.00000
     16      -7.0671      2.00000
     17      -0.0712      2.00000
     18       1.5954      2.00000
     19       1.5955      2.00000
     20       3.6005      0.00000
     21       5.9692      0.00000
     22       5.9692      0.00000
     23       6.1927      0.00000

 k-point     6 :       0.1250    0.1250    0.0000
  band No.  band energies     occupation 
      1     -25.6065      2.00000
      2     -22.3842      2.00000
      3     -22.3842      2.00000
      4     -22.3829      2.00000
      5     -22.3784      2.00000
      6     -22.3772      2.00000
      7     -22.3772      2.00000
      8     -19.1101      2.00000
      9     -19.1099      2.00000
     10     -19.1099      2.00000
     11     -19.1088      2.00000
     12     -19.1087      2.00000
     13      -9.7613      2.00000
     14      -9.7524      2.00000
     15      -9.7524      2.00000
     16      -7.2427      2.00000
     17       1.1565      2.00000
     18       2.0180      2.00000
     19       2.0180      2.00000
     20       3.0696      0.00000
     21       4.2425      0.00000
     22       4.9467      0.00000
     23       4.9467      0.00000

 k-point     7 :       0.2500    0.1250    0.0000
  band No.  band energies     occupation 
      1     -25.6064      2.00000
      2     -22.3841      2.00000
      3     -22.3840      2.00000
      4     -22.3816      2.00000
      5     -22.3796      2.00000
      6     -22.3774      2.00000
      7     -22.3773      2.00000
      8     -19.1102      2.00000
      9     -19.1099      2.00000
     10     -19.1099      2.00000
     11     -19.1088      2.00000
     12     -19.1086      2.00000
     13      -9.7790      2.00000
     14      -9.7540      2.00000
     15      -9.7530      2.00000
     16      -7.1877      2.00000
     17       0.6783      2.00000
     18       1.8020      2.00000
     19       1.8475      2.00000
     20       3.5301      0.00000
     21       4.2727      0.00000
     22       5.3788      0.00000
     23       5.4141      0.00000

 k-point     8 :       0.3750    0.1250    0.0000
  band No.  band energies     occupation 
      1     -25.6063      2.00000
      2     -22.3834      2.00000
      3     -22.3833      2.00000
      4     -22.3809      2.00000
      5     -22.3801      2.00000
      6     -22.3781      2.00000
      7     -22.3780      2.00000
      8     -19.1103      2.00000
      9     -19.1099      2.00000
     10     -19.1098      2.00000
     11     -19.1088      2.00000
     12     -19.1087      2.00000
     13      -9.8011      2.00000
     14      -9.7546      2.00000
     15      -9.7543      2.00000
     16      -7.1183      2.00000
     17       0.2593      2.00000
     18       1.5439      2.00000
     19       1.6748      2.00000
     20       3.7430      0.00000
     21       4.8811      0.00000
     22       5.8308      0.00000
     23       5.9054      0.00000

 k-point     9 :       0.5000    0.1250    0.0000
  band No.  band energies     occupation 
      1     -25.6062      2.00000
      2     -22.3826      2.00000
      3     -22.3823      2.00000
      4     -22.3819      2.00000
      5     -22.3791      2.00000
      6     -22.3790      2.00000
      7     -22.3788      2.00000
      8     -19.1104      2.00000
      9     -19.1099      2.00000
     10     -19.1098      2.00000
     11     -19.1087      2.00000
     12     -19.1087      2.00000
     13      -9.8140      2.00000
     14      -9.7564      2.00000
     15      -9.7539      2.00000
     16      -7.0748      2.00000
     17       0.0452      2.00000
     18       1.3928      2.00000
     19       1.5838      2.00000
     20       3.8919      0.00000
     21       5.2909      0.00000
     22       6.1091      0.00000
     23       6.1865      0.00000

 k-point    10 :      -0.3750    0.1250    0.0000
  band No.  band energies     occupation 
      1     -25.6062      2.00000
      2     -22.3835      2.00000
      3     -22.3810      2.00000
      4     -22.3808      2.00000
      5     -22.3804      2.00000
      6     -22.3802      2.00000
      7     -22.3778      2.00000
      8     -19.1103      2.00000
      9     -19.1099      2.00000
     10     -19.1098      2.00000
     11     -19.1087      2.00000
     12     -19.1087      2.00000
     13      -9.8114      2.00000
     14      -9.7579      2.00000
     15      -9.7522      2.00000
     16      -7.0826      2.00000
     17       0.0865      2.00000
     18       1.3916      2.00000
     19       1.6098      2.00000
     20       3.9239      0.00000
     21       5.3904      0.00000
     22       5.6722      0.00000
     23       6.1753      0.00000

 k-point    11 :      -0.2500    0.1250    0.0000
  band No.  band energies     occupation 
      1     -25.6063      2.00000
      2     -22.3842      2.00000
      3     -22.3818      2.00000
      4     -22.3818      2.00000
      5     -22.3796      2.00000
      6     -22.3793      2.00000
      7     -22.3772      2.00000
      8     -19.1102      2.00000
      9     -19.1099      2.00000
     10     -19.1099      2.00000
     11     -19.1088      2.00000
     12     -19.1087      2.00000
     13      -9.7950      2.00000
     14      -9.7575      2.00000
     15      -9.7506      2.00000
     16      -7.1373      2.00000
     17       0.3711      2.00000
     18       1.5465      2.00000
     19       1.7471      2.00000
     20       3.8001      0.00000
     21       5.0667      0.00000
     22       5.1407      0.00000
     23       5.6806      0.00000

 k-point    12 :      -0.1250    0.1250    0.0000
  band No.  band energies     occupation 
      1     -25.6064      2.00000
      2     -22.3843      2.00000
      3     -22.3830      2.00000
      4     -22.3830      2.00000
      5     -22.3784      2.00000
      6     -22.3782      2.00000
      7     -22.3771      2.00000
      8     -19.1101      2.00000
      9     -19.1099      2.00000
     10     -19.1099      2.00000
     11     -19.1088      2.00000
     12     -19.1087      2.00000
     13      -9.7742      2.00000
     14      -9.7546      2.00000
     15      -9.7500      2.00000
     16      -7.2069      2.00000
     17       0.8205      2.00000
     18       1.8285      2.00000
     19       1.9388      2.00000
     20       3.4066      0.00000
     21       4.5958      0.00000
     22       4.7787      0.00000
     23       5.2803      0.00000

 k-point    13 :       0.2500    0.2500    0.0000
  band No.  band energies     occupation 
      1     -25.6064      2.00000
      2     -22.3845      2.00000
      3     -22.3845      2.00000
      4     -22.3810      2.00000
      5     -22.3799      2.00000
      6     -22.3770      2.00000
      7     -22.3770      2.00000
      8     -19.1104      2.00000
      9     -19.1098      2.00000
     10     -19.1098      2.00000
     11     -19.1088      2.00000
     12     -19.1086      2.00000
     13      -9.7800      2.00000
     14      -9.7571      2.00000
     15      -9.7571      2.00000
     16      -7.1689      2.00000
     17       0.5766      2.00000
     18       1.7582      2.00000
     19       1.7582      2.00000
     20       3.7449      0.00000
     21       3.7531      0.00000
     22       5.9244      0.00000
     23       5.9244      0.00000

 k-point    14 :       0.3750    0.2500    0.0000
  band No.  band energies     occupation 
      1     -25.6063      2.00000
      2     -22.3843      2.00000
      3     -22.3843      2.00000
      4     -22.3824      2.00000
      5     -22.3784      2.00000
      6     -22.3771      2.00000
      7     -22.3771      2.00000
      8     -19.1105      2.00000
      9     -19.1098      2.00000
     10     -19.1097      2.00000
     11     -19.1087      2.00000
     12     -19.1085      2.00000
     13      -9.7904      2.00000
     14      -9.7599      2.00000
     15      -9.7587      2.00000
     16      -7.1298      2.00000
     17       0.4062      2.00000
     18       1.4900      2.00000
     19       1.6396      2.00000
     20       3.7273      0.00000
     21       4.1713      0.00000
     22       5.9338      0.00000
     23       6.3199      0.00000

 k-point    15 :       0.5000    0.2500    0.0000
  band No.  band energies     occupation 
      1     -25.6062      2.00000
      2     -22.3841      2.00000
      3     -22.3836      2.00000
      4     -22.3831      2.00000
      5     -22.3778      2.00000
      6     -22.3778      2.00000
      7     -22.3772      2.00000
      8     -19.1104      2.00000
      9     -19.1099      2.00000
[...]
      4     -22.3837      2.00000
      5     -22.3770      2.00000
      6     -22.3767      2.00000
      7     -22.3767      2.00000
      8     -19.1107      2.00000
      9     -19.1097      2.00000
     10     -19.1097      2.00000
     11     -19.1087      2.00000
     12     -19.1085      2.00000
     13      -9.7891      2.00000
     14      -9.7618      2.00000
     15      -9.7618      2.00000
     16      -7.1269      2.00000
     17       0.4105      2.00000
     18       1.5808      2.00000
     19       1.5808      2.00000
     20       3.3853      0.00000
     21       3.8694      0.00000
     22       6.3409      0.00000
     23       6.7613      0.00000

 k-point    19 :       0.5000    0.3750    0.0000
  band No.  band energies     occupation 
      1     -25.6062      2.00000
      2     -22.3848      2.00000
      3     -22.3845      2.00000
      4     -22.3841      2.00000
      5     -22.3770      2.00000
      6     -22.3770      2.00000
      7     -22.3761      2.00000
      8     -19.1107      2.00000
      9     -19.1097      2.00000
     10     -19.1096      2.00000
     11     -19.1086      2.00000
     12     -19.1085      2.00000
     13      -9.7893      2.00000
     14      -9.7676      2.00000
     15      -9.7621      2.00000
     16      -7.1117      2.00000
     17       0.4477      2.00000
     18       1.2660      2.00000
     19       1.5319      2.00000
     20       3.5170      0.00000
     21       4.1062      0.00000
     22       6.3325      0.00000
     23       6.9381      0.00000

 k-point    20 :      -0.3750    0.3750    0.0000
  band No.  band energies     occupation 
      1     -25.6062      2.00000
      2     -22.3850      2.00000
      3     -22.3837      2.00000
      4     -22.3833      2.00000
      5     -22.3777      2.00000
      6     -22.3777      2.00000
      7     -22.3760      2.00000
      8     -19.1105      2.00000
      9     -19.1099      2.00000
     10     -19.1097      2.00000
     11     -19.1086      2.00000
     12     -19.1086      2.00000
     13      -9.7826      2.00000
     14      -9.7822      2.00000
     15      -9.7594      2.00000
     16      -7.0925      2.00000
     17       0.6124      2.00000
     18       0.7524      2.00000
     19       1.5188      2.00000
     20       3.8591      0.00000
     21       4.9769      0.00000
     22       6.0312      0.00000
     23       6.4003      0.00000

 k-point    21 :       0.5000    0.5000    0.0000
  band No.  band energies     occupation 
      1     -25.6062      2.00000
      2     -22.3849      2.00000
      3     -22.3849      2.00000
      4     -22.3847      2.00000
      5     -22.3767      2.00000
      6     -22.3767      2.00000
      7     -22.3757      2.00000
      8     -19.1108      2.00000
      9     -19.1096      2.00000
     10     -19.1096      2.00000
     11     -19.1086      2.00000
     12     -19.1084      2.00000
     13      -9.7902      2.00000
     14      -9.7638      2.00000
     15      -9.7637      2.00000
     16      -7.1192      2.00000
     17       0.4270      2.00000
     18       1.5219      2.00000
     19       1.5219      2.00000
     20       3.2586      0.00000
     21       3.7166      0.00000
     22       6.8459      0.00000
     23       7.0863      0.00000

 k-point    22 :       0.3750    0.2500    0.1250
  band No.  band energies     occupation 
      1     -25.6063      2.00000
      2     -22.3845      2.00000
      3     -22.3833      2.00000
      4     -22.3810      2.00000
      5     -22.3800      2.00000
      6     -22.3781      2.00000
      7     -22.3769      2.00000
      8     -19.1103      2.00000
      9     -19.1099      2.00000
     10     -19.1098      2.00000
     11     -19.1088      2.00000
     12     -19.1086      2.00000
     13      -9.7896      2.00000
     14      -9.7599      2.00000
     15      -9.7533      2.00000
     16      -7.1419      2.00000
     17       0.4440      2.00000
     18       1.5159      2.00000
     19       1.7030      2.00000
     20       4.0260      0.00000
     21       4.2381      0.00000
     22       5.6925      0.00000
     23       5.7290      0.00000

 k-point    23 :       0.5000    0.2500    0.1250
  band No.  band energies     occupation 
      1     -25.6062      2.00000
      2     -22.3844      2.00000
      3     -22.3824      2.00000
      4     -22.3821      2.00000
      5     -22.3793      2.00000
      6     -22.3786      2.00000
      7     -22.3769      2.00000
      8     -19.1103      2.00000
      9     -19.1100      2.00000
     10     -19.1098      2.00000
     11     -19.1087      2.00000
     12     -19.1086      2.00000
     13      -9.8001      2.00000
     14      -9.7638      2.00000
     15      -9.7551      2.00000
     16      -7.0967      2.00000
     17       0.2790      2.00000
     18       1.2280      2.00000
     19       1.5557      2.00000
     20       4.2419      0.00000
     21       4.9058      0.00000
     22       5.3894      0.00000
     23       6.2247      0.00000

 k-point    24 :      -0.3750    0.2500    0.1250
  band No.  band energies     occupation 
      1     -25.6062      2.00000
      2     -22.3841      2.00000
      3     -22.3832      2.00000
      4     -22.3808      2.00000
      5     -22.3805      2.00000
      6     -22.3776      2.00000
      7     -22.3775      2.00000
      8     -19.1103      2.00000
      9     -19.1100      2.00000
     10     -19.1097      2.00000
     11     -19.1087      2.00000
     12     -19.1086      2.00000
     13      -9.8044      2.00000
     14      -9.7646      2.00000
     15      -9.7565      2.00000
     16      -7.0781      2.00000
     17       0.2212      2.00000
     18       1.1183      2.00000
     19       1.4981      2.00000
     20       4.3680      0.00000
     21       4.9337      0.00000
     22       5.9065      0.00000
     23       6.1295      0.00000

 k-point    25 :       0.5000    0.3750    0.1250
  band No.  band energies     occupation 
      1     -25.6062      2.00000
      2     -22.3849      2.00000
      3     -22.3835      2.00000
      4     -22.3835      2.00000
      5     -22.3779      2.00000
      6     -22.3771      2.00000
      7     -22.3766      2.00000
      8     -19.1105      2.00000
      9     -19.1098      2.00000
     10     -19.1097      2.00000
     11     -19.1087      2.00000
     12     -19.1085      2.00000
     13      -9.7914      2.00000
     14      -9.7653      2.00000
     15      -9.7612      2.00000
     16      -7.1086      2.00000
     17       0.4118      2.00000
     18       1.2999      2.00000
     19       1.4386      2.00000
     20       3.9247      0.00000
     21       4.3435      0.00000
     22       5.7174      0.00000
     23       6.8538      0.00000

 k-point    26 :      -0.3750    0.3750    0.1250
  band No.  band energies     occupation 
      1     -25.6062      2.00000
      2     -22.3851      2.00000
      3     -22.3839      2.00000
      4     -22.3823      2.00000
      5     -22.3792      2.00000
      6     -22.3767      2.00000
      7     -22.3764      2.00000
      8     -19.1104      2.00000
      9     -19.1100      2.00000
     10     -19.1097      2.00000
     11     -19.1086      2.00000
     12     -19.1086      2.00000
     13      -9.7889      2.00000
     14      -9.7730      2.00000
     15      -9.7626      2.00000
     16      -7.0904      2.00000
     17       0.5216      2.00000
     18       0.9274      2.00000
     19       1.3522      2.00000
     20       4.2494      0.00000
     21       5.0375      0.00000
     22       5.4106      0.00000
     23       6.1543      0.00000

 k-point    27 :      -0.2500    0.3750    0.1250
  band No.  band energies     occupation 
      1     -25.6062      2.00000
      2     -22.3850      2.00000
      3     -22.3834      2.00000
      4     -22.3808      2.00000
      5     -22.3806      2.00000
      6     -22.3774      2.00000
      7     -22.3763      2.00000
      8     -19.1102      2.00000
      9     -19.1102      2.00000
     10     -19.1097      2.00000
     11     -19.1087      2.00000
     12     -19.1086      2.00000
     13      -9.7920      2.00000
     14      -9.7739      2.00000
     15      -9.7591      2.00000
     16      -7.0854      2.00000
     17       0.4648      2.00000
     18       0.8855      2.00000
     19       1.4146      2.00000
     20       4.6443      0.00000
     21       5.0874      0.00000
     22       5.2356      0.00000
     23       6.0421      0.00000

 k-point    28 :      -0.3750    0.5000    0.1250
  band No.  band energies     occupation 
      1     -25.6062      2.00000
      2     -22.3853      2.00000
      3     -22.3843      2.00000
      4     -22.3837      2.00000
      5     -22.3779      2.00000
      6     -22.3765      2.00000
      7     -22.3759      2.00000
      8     -19.1106      2.00000
      9     -19.1098      2.00000
     10     -19.1096      2.00000
     11     -19.1086      2.00000
     12     -19.1085      2.00000
     13      -9.7863      2.00000
     14      -9.7678      2.00000
     15      -9.7676      2.00000
     16      -7.1042      2.00000
     17       0.5206      2.00000
     18       1.2265      2.00000
     19       1.2726      2.00000
     20       3.8148      0.00000
     21       4.2508      0.00000
     22       6.3229      0.00000
     23       6.4232      0.00000

 k-point    29 :      -0.2500    0.5000    0.2500
  band No.  band energies     occupation 
      1     -25.6062      2.00000
      2     -22.3855      2.00000
      3     -22.3841      2.00000
      4     -22.3808      2.00000
      5     -22.3808      2.00000
      6     -22.3763      2.00000
      7     -22.3761      2.00000
      8     -19.1102      2.00000
      9     -19.1102      2.00000
     10     -19.1096      2.00000
     11     -19.1086      2.00000
     12     -19.1085      2.00000
     13      -9.7769      2.00000
     14      -9.7769      2.00000
     15      -9.7718      2.00000
     16      -7.0893      2.00000
     17       0.7996      2.00000
     18       0.7996      2.00000
     19       1.0761      2.00000
     20       4.9989      0.00000
     21       4.9989      0.00000
     22       5.0338      0.00000
     23       5.5821      0.00000


--------------------------------------------------------------------------------------------------------


 soft charge-density along one line, spin component           1
         0         1         2         3         4         5         6         7         8         9
 total charge-density along one line
 
 pseudopotential strength for first ion, spin component:           1
-19.455   0.000   0.000   0.000   0.000   5.075  -0.000  -0.000
  0.000 -19.455  -0.000   0.000   0.000  -0.000   5.075   0.000
  0.000  -0.000 -19.455  -0.000   0.000  -0.000   0.000   5.076
  0.000   0.000  -0.000 -19.455  -0.000  -0.000  -0.000   0.000
  0.000   0.000   0.000  -0.000 -19.455  -0.000  -0.000  -0.000
  5.075  -0.000  -0.000  -0.000  -0.000   5.259  -0.000  -0.000
 -0.000   5.075   0.000  -0.000  -0.000  -0.000   5.259   0.000
 -0.000   0.000   5.076   0.000  -0.000  -0.000   0.000   5.259
 -0.000  -0.000   0.000   5.075   0.000  -0.000  -0.000   0.000
 -0.000  -0.000  -0.000   0.000   5.076  -0.000  -0.000   0.000
  0.000   0.000  -0.000   0.000   0.000   0.000   0.000  -0.000
  0.000   0.000  -0.000   0.000   0.000  -0.000  -0.000   0.000
  0.000   0.000  -0.000   0.000  -0.000   0.000   0.000  -0.000
  0.000   0.000   0.000   0.000   0.000   0.000   0.000   0.000
  0.000   0.000  -0.000   0.000   0.000   0.000   0.000  -0.000
  0.000   0.000  -0.000   0.000  -0.000   0.000   0.000  -0.000
  0.000   0.000   0.000   0.000   0.000   0.000   0.000   0.000
  0.000   0.000  -0.000   0.000   0.000   0.000   0.000  -0.000
 total augmentation occupancy for first ion, spin component:           1
  1.999   0.000   0.000   0.000   0.000   0.004   0.000   0.000   0.000   0.000  -0.000   0.000  -0.000  -0.000   0.000  -0.000
  0.000   1.999   0.000  -0.000  -0.000   0.000   0.004   0.000   0.000   0.000   0.000  -0.000   0.000  -0.000   0.000   0.000
  0.000  -0.000   1.999  -0.000   0.000  -0.000  -0.000   0.003   0.000   0.000   0.000   0.000  -0.000   0.000  -0.000   0.000
  0.000  -0.000  -0.000   1.999   0.000  -0.000   0.000  -0.000   0.004  -0.000  -0.000   0.000  -0.000   0.000   0.000   0.000
  0.000   0.000   0.000  -0.000   1.999  -0.000  -0.000   0.000   0.000   0.003   0.000   0.000   0.000   0.000   0.000  -0.000
  0.004   0.000  -0.000   0.000   0.000   0.001   0.000  -0.000  -0.000   0.000   0.000   0.000   0.000   0.000  -0.000  -0.000
  0.000   0.004  -0.000   0.000   0.000   0.000   0.001  -0.000   0.000   0.000   0.000  -0.000   0.000   0.000  -0.000   0.000
 -0.000  -0.000   0.003  -0.000   0.000   0.000   0.000   0.000   0.000   0.000  -0.000  -0.000  -0.000  -0.000   0.000  -0.000
 -0.000   0.000  -0.000   0.004   0.000  -0.000   0.000  -0.000   0.001   0.000   0.000   0.000   0.000  -0.000  -0.000   0.000
 -0.000   0.000   0.000  -0.000   0.003   0.000   0.000   0.000   0.000   0.000   0.000   0.000   0.000   0.000  -0.000   0.000
  0.000  -0.000   0.000  -0.000   0.000  -0.000   0.000  -0.000   0.000   0.000   1.924   0.023   0.000   0.000   0.000   0.000
  0.000   0.000   0.000   0.000   0.000   0.000   0.000  -0.000  -0.000   0.000   0.023   0.002   0.000   0.000   0.000  -0.000
 -0.000  -0.000   0.000   0.000  -0.000   0.000   0.000  -0.000   0.000  -0.000   0.000   0.000   1.441   0.000   0.000  -0.069
  0.000   0.000   0.000   0.000   0.000   0.000   0.000   0.000   0.000   0.000   0.000   0.000   0.000   1.441   0.000   0.000
 -0.000  -0.000   0.000   0.000   0.000  -0.000  -0.000   0.000   0.000  -0.000   0.000   0.000   0.000   0.000   1.441  -0.000
  0.000   0.000   0.000  -0.000  -0.000   0.000  -0.000  -0.000  -0.000   0.000  -0.000   0.000  -0.069   0.000  -0.000   0.004
  0.000   0.000  -0.000   0.000   0.000   0.000   0.000   0.000   0.000   0.000   0.000   0.000   0.000  -0.069  -0.000  -0.000
  0.000  -0.000   0.000   0.000   0.000  -0.000  -0.000   0.000  -0.000  -0.000   0.000   0.000  -0.000   0.000  -0.069   0.000


------------------------ aborting loop because EDIFF is reached ----------------------------------------


    CHARGE:  cpu time    0.0552: real time    0.0553
    FORLOC:  cpu time    0.0080: real time    0.0080
    FORNL :  cpu time    0.0525: real time    0.0525
    STRESS:  cpu time    0.2016: real time    0.2019
    FORCOR:  cpu time    0.0908: real time    0.0908
    FORHAR:  cpu time    0.0235: real time    0.0235
    MIXING:  cpu time    0.0063: real time    0.0063
    OFIELD:  cpu time    0.0001: real time    0.0001

  FORCE on cell =-STRESS in cart. coord.  units (eV):
  Direction    XX          YY          ZZ          XY          YZ          ZX
  --------------------------------------------------------------------------------------
  Alpha Z   106.83458   106.83458   106.83458
  Ewald    -826.21432  -826.21432  -826.21432    -0.00028    -0.00028    -0.00028
  Hartree   398.39913   398.39913   398.39913    -0.00017    -0.00017    -0.00017
  E(xc)    -180.54482  -180.54482  -180.54482     0.00002     0.00002     0.00002
  Local     -96.71849   -96.71849   -96.71849     0.00042     0.00042     0.00042
  n-local    17.62404    17.96091    14.86509     1.84405    -1.47425     0.81319
  augment   217.28970   217.28970   217.28970     0.00003     0.00003     0.00003
  Kinetic   364.96627   364.70168   362.75461     3.08359    -2.04282     1.41047
  Fock        0.00000     0.00000     0.00000     0.00000     0.00000     0.00000
  -------------------------------------------------------------------------------------
  Total       0.00330     0.00330     0.00330     0.00000     0.00000     0.00000
  in kB       0.03968     0.03968     0.03968     0.00000     0.00000     0.00000
  external pressure =        0.04 kB  Pullay stress =        0.00 kB


 VOLUME and BASIS-vectors are now :
 -----------------------------------------------------------------------------
  energy-cutoff  :      520.00
  volume of cell :      133.39
      direct lattice vectors                 reciprocal lattice vectors
     0.000000000  4.055366141  4.055366141    -0.123293430  0.123293430  0.123293430
     4.055366141  0.000000000  4.055366141     0.123293430 -0.123293430  0.123293430
     4.055366141  4.055366141  0.000000000     0.123293430  0.123293430 -0.123293430

  length of vectors
     5.735153797  5.735153797  5.735153797     0.213550484  0.213550484  0.213550484


 FORCES acting on ions
    electron-ion (+dipol)            ewald-force                    non-local-force                 convergence-correction
 -----------------------------------------------------------------------------------------------
   -.731E-03 -.731E-03 -.681E-03   -.433E-03 -.433E-03 -.433E-03   -.233E-20 0.762E-20 -.572E-20   0.306E-05 0.306E-05 0.308E-05
   0.726E-04 0.726E-04 0.694E-04   -.193E-04 -.193E-04 -.193E-04   0.694E-17 0.520E-17 0.954E-17   0.154E-06 0.154E-06 0.154E-06
   -.387E-03 -.387E-03 -.391E-03   -.385E-03 -.385E-03 -.385E-03   -.520E-17 -.867E-17 -.683E-17   0.530E-06 0.530E-06 0.530E-06
   0.373E-02 0.373E-02 0.376E-02   0.838E-03 0.838E-03 0.838E-03   -.136E-19 0.169E-20 -.169E-20   -.228E-05 -.228E-05 -.229E-05
 -----------------------------------------------------------------------------------------------
   0.268E-02 0.268E-02 0.276E-02   -.570E-15 -.557E-15 -.124E-14   0.172E-17 -.346E-17 0.270E-17   0.146E-05 0.146E-05 0.147E-05
 
 
 POSITION                                       TOTAL-FORCE (eV/Angst)
 -----------------------------------------------------------------------------------
      2.02768      2.02768      2.02768        -0.000000      0.000000     -0.000000
      0.00000      0.00000      0.00000        -0.000000     -0.000000     -0.000000
      4.05537      4.05537      4.05537        -0.000000      0.000000      0.000000
      6.08304      6.08304      6.08304         0.000000     -0.000000      0.000000
 -----------------------------------------------------------------------------------
    total drift:                                0.002681      0.002681      0.002760


--------------------------------------------------------------------------------------------------------



  FREE ENERGIE OF THE ION-ELECTRON SYSTEM (eV)
  ---------------------------------------------------
  free  energy   TOTEN  =        -8.90600783 eV

  energy  without entropy=       -8.90585545  energy(sigma->0) =       -8.90593164
 


--------------------------------------------------------------------------------------------------------


    POTLOK:  cpu time    0.0876: real time    0.0876


--------------------------------------------------------------------------------------------------------


     LOOP+:  cpu time    9.2168: real time    9.2385
    4ORBIT:  cpu time    0.0000: real time    0.0000

 total amount of memory used by VASP MPI-rank0    56391. kBytes
=======================================================================

   base      :      30000. kBytes
   nonl-proj :       6648. kBytes
   fftplans  :       4865. kBytes
   grid      :       9037. kBytes
   one-center:         15. kBytes
   wavefun   :       5826. kBytes
 
  
  
 General timing and accounting informations for this job:
 ========================================================
  
                  Total CPU time used (sec):        9.960
                            User time (sec):        9.693
                          System time (sec):        0.267
                         Elapsed time (sec):       10.337
  
                   Maximum memory used (kb):      111220.
                   Average memory used (kb):           0.
  
                          Minor page faults:        33769
                          Major page faults:            0
                 Voluntary context switches:          391
