unknown system                          
           1
     0.000000    4.055366    4.055366
     4.055366    0.000000    4.055366
     4.055366    4.055366    0.000000
   Bi   Na   Rb
   1   2   1
Direct configuration=     1
   0.25000019  0.25000019  0.25000019
   0.00000000  0.00000000  0.00000000
   0.50000038  0.50000038  0.50000038
   0.74999931  0.74999931  0.74999931
