   4   4   0   0
  0.4184331E+02  0.6185864E-09  0.6185864E-09  0.6185864E-09  0.5000000E-15
  1.000000000000000E-004
  CAR 
 unknown system                          
      7.25090220    -30.88175241  301      2.05532801      1.00000000
    -30.882  0.0000E+00  0.0000E+00
    -30.755  0.0000E+00  0.0000E+00
    -30.628  0.0000E+00  0.0000E+00
    -30.500  0.0000E+00  0.0000E+00
    -30.373  0.0000E+00  0.0000E+00
    -30.246  0.0000E+00  0.0000E+00
    -30.119  0.0000E+00  0.0000E+00
    -29.992  0.0000E+00  0.0000E+00
    -29.865  0.0000E+00  0.0000E+00
    -29.738  0.0000E+00  0.0000E+00
    -29.611  0.0000E+00  0.0000E+00
    -29.484  0.0000E+00  0.0000E+00
    -29.356  0.2537E-09  0.3225E-10
    -29.229  0.2280E-02  0.2898E-03
    -29.102  0.2726E+00  0.3494E-01
    -28.975  0.3982E-01  0.4000E-01
    -28.848  0.3518E-06  0.4000E-01
    -28.721  0.0000E+00  0.4000E-01
    -28.594  0.0000E+00  0.4000E-01
    -28.467  0.0000E+00  0.4000E-01
    -28.340  0.0000E+00  0.4000E-01
    -28.212  0.0000E+00  0.4000E-01
    -28.085  0.0000E+00  0.4000E-01
    -27.958  0.0000E+00  0.4000E-01
    -27.831  0.0000E+00  0.4000E-01
    -27.704  0.0000E+00  0.4000E-01
    -27.577  0.0000E+00  0.4000E-01
    -27.450  0.0000E+00  0.4000E-01
    -27.323  0.0000E+00  0.4000E-01
    -27.196  0.0000E+00  0.4000E-01
    -27.068  0.0000E+00  0.4000E-01
    -26.941  0.0000E+00  0.4000E-01
    -26.814  0.0000E+00  0.4000E-01
    -26.687  0.0000E+00  0.4000E-01
    -26.560  0.0000E+00  0.4000E-01
    -26.433  0.0000E+00  0.4000E-01
    -26.306  0.0000E+00  0.4000E-01
    -26.179  0.0000E+00  0.4000E-01
    -26.052  0.0000E+00  0.4000E-01
    -25.925  0.0000E+00  0.4000E-01
    -25.797  0.0000E+00  0.4000E-01
    -25.670  0.0000E+00  0.4000E-01
    -25.543  0.0000E+00  0.4000E-01
    -25.416  0.0000E+00  0.4000E-01
    -25.289  0.0000E+00  0.4000E-01
    -25.162  0.0000E+00  0.4000E-01
    -25.035  0.0000E+00  0.4000E-01
    -24.908  0.0000E+00  0.4000E-01
    -24.781  0.0000E+00  0.4000E-01
    -24.653  0.0000E+00  0.4000E-01
    -24.526  0.0000E+00  0.4000E-01
    -24.399  0.0000E+00  0.4000E-01
    -24.272  0.0000E+00  0.4000E-01
    -24.145  0.0000E+00  0.4000E-01
    -24.018  0.0000E+00  0.4000E-01
    -23.891  0.0000E+00  0.4000E-01
    -23.764  0.0000E+00  0.4000E-01
    -23.637  0.0000E+00  0.4000E-01
    -23.509  0.0000E+00  0.4000E-01
    -23.382  0.0000E+00  0.4000E-01
    -23.255  0.0000E+00  0.4000E-01
    -23.128  0.0000E+00  0.4000E-01
    -23.001  0.0000E+00  0.4000E-01
    -22.874  0.0000E+00  0.4000E-01
    -22.747  0.0000E+00  0.4000E-01
    -22.620  0.0000E+00  0.4000E-01
    -22.493  0.0000E+00  0.4000E-01
    -22.365  0.0000E+00  0.4000E-01
    -22.238  0.0000E+00  0.4000E-01
    -22.111  0.0000E+00  0.4000E-01
    -21.984  0.0000E+00  0.4000E-01
    -21.857  0.0000E+00  0.4000E-01
    -21.730  0.0000E+00  0.4000E-01
    -21.603  0.0000E+00  0.4000E-01
    -21.476  0.0000E+00  0.4000E-01
    -21.349  0.1308E-13  0.4000E-01
    -21.221  0.1242E-04  0.4000E-01
    -21.094  0.6721E-01  0.4854E-01
    -20.967  0.9007E-01  0.5999E-01
    -20.840  0.5080E-04  0.6000E-01
    -20.713  0.1920E-12  0.6000E-01
    -20.586  0.0000E+00  0.6000E-01
    -20.459  0.0000E+00  0.6000E-01
    -20.332  0.0000E+00  0.6000E-01
    -20.205  0.0000E+00  0.6000E-01
    -20.078  0.0000E+00  0.6000E-01
    -19.950  0.0000E+00  0.6000E-01
    -19.823  0.0000E+00  0.6000E-01
    -19.696  0.0000E+00  0.6000E-01
    -19.569  0.0000E+00  0.6000E-01
    -19.442  0.0000E+00  0.6000E-01
    -19.315  0.0000E+00  0.6000E-01
    -19.188  0.0000E+00  0.6000E-01
    -19.061  0.0000E+00  0.6000E-01
    -18.934  0.0000E+00  0.6000E-01
    -18.806  0.0000E+00  0.6000E-01
    -18.679  0.0000E+00  0.6000E-01
    -18.552  0.0000E+00  0.6000E-01
    -18.425  0.0000E+00  0.6000E-01
    -18.298  0.0000E+00  0.6000E-01
    -18.171  0.0000E+00  0.6000E-01
    -18.044  0.0000E+00  0.6000E-01
    -17.917  0.0000E+00  0.6000E-01
    -17.790  0.0000E+00  0.6000E-01
    -17.662  0.0000E+00  0.6000E-01
    -17.535  0.0000E+00  0.6000E-01
    -17.408  0.0000E+00  0.6000E-01
    -17.281  0.0000E+00  0.6000E-01
    -17.154  0.0000E+00  0.6000E-01
    -17.027  0.0000E+00  0.6000E-01
    -16.900  0.0000E+00  0.6000E-01
    -16.773  0.0000E+00  0.6000E-01
    -16.646  0.0000E+00  0.6000E-01
    -16.518  0.0000E+00  0.6000E-01
    -16.391  0.0000E+00  0.6000E-01
    -16.264  0.0000E+00  0.6000E-01
    -16.137  0.0000E+00  0.6000E-01
    -16.010  0.0000E+00  0.6000E-01
    -15.883  0.0000E+00  0.6000E-01
    -15.756  0.0000E+00  0.6000E-01
    -15.629  0.0000E+00  0.6000E-01
    -15.502  0.0000E+00  0.6000E-01
    -15.374  0.0000E+00  0.6000E-01
    -15.247  0.0000E+00  0.6000E-01
    -15.120  0.0000E+00  0.6000E-01
    -14.993  0.0000E+00  0.6000E-01
    -14.866  0.0000E+00  0.6000E-01
    -14.739  0.0000E+00  0.6000E-01
    -14.612  0.0000E+00  0.6000E-01
    -14.485  0.0000E+00  0.6000E-01
    -14.358  0.0000E+00  0.6000E-01
    -14.230  0.0000E+00  0.6000E-01
    -14.103  0.0000E+00  0.6000E-01
    -13.976  0.0000E+00  0.6000E-01
    -13.849  0.0000E+00  0.6000E-01
    -13.722  0.0000E+00  0.6000E-01
    -13.595  0.0000E+00  0.6000E-01
    -13.468  0.0000E+00  0.6000E-01
    -13.341  0.0000E+00  0.6000E-01
    -13.214  0.0000E+00  0.6000E-01
    -13.087  0.0000E+00  0.6000E-01
    -12.959  0.1286E-12  0.6000E-01
    -12.832  0.3836E-04  0.6000E-01
    -12.705  0.1746E+00  0.8220E-01
    -12.578  0.7374E+00  0.1759E+00
    -12.451  0.3205E-01  0.1800E+00
    -12.324  0.1760E-06  0.1800E+00
    -12.197  0.0000E+00  0.1800E+00
    -12.070  0.0000E+00  0.1800E+00
    -11.943  0.0000E+00  0.1800E+00
    -11.815  0.0000E+00  0.1800E+00
    -11.688  0.0000E+00  0.1800E+00
    -11.561  0.0000E+00  0.1800E+00
    -11.434  0.0000E+00  0.1800E+00
    -11.307  0.0000E+00  0.1800E+00
    -11.180  0.0000E+00  0.1800E+00
    -11.053  0.0000E+00  0.1800E+00
    -10.926  0.0000E+00  0.1800E+00
    -10.799  0.0000E+00  0.1800E+00
    -10.671  0.0000E+00  0.1800E+00
    -10.544  0.0000E+00  0.1800E+00
    -10.417  0.0000E+00  0.1800E+00
    -10.290  0.0000E+00  0.1800E+00
    -10.163  0.0000E+00  0.1800E+00
    -10.036  0.0000E+00  0.1800E+00
     -9.909  0.0000E+00  0.1800E+00
     -9.782  0.0000E+00  0.1800E+00
     -9.655  0.0000E+00  0.1800E+00
     -9.527  0.0000E+00  0.1800E+00
     -9.400  0.0000E+00  0.1800E+00
     -9.273  0.0000E+00  0.1800E+00
     -9.146  0.0000E+00  0.1800E+00
     -9.019  0.0000E+00  0.1800E+00
     -8.892  0.0000E+00  0.1800E+00
     -8.765  0.0000E+00  0.1800E+00
     -8.638  0.0000E+00  0.1800E+00
     -8.511  0.0000E+00  0.1800E+00
     -8.383  0.0000E+00  0.1800E+00
     -8.256  0.3623E-15  0.1800E+00
     -8.129  0.1366E-05  0.1800E+00
     -8.002  0.4349E-01  0.1855E+00
     -7.875  0.4119E+00  0.2379E+00
     -7.748  0.1668E-01  0.2400E+00
     -7.621  0.3307E-07  0.2400E+00
     -7.494  0.0000E+00  0.2400E+00
     -7.367  0.0000E+00  0.2400E+00
     -7.240  0.0000E+00  0.2400E+00
     -7.112  0.0000E+00  0.2400E+00
     -6.985  0.0000E+00  0.2400E+00
     -6.858  0.0000E+00  0.2400E+00
     -6.731  0.0000E+00  0.2400E+00
     -6.604  0.0000E+00  0.2400E+00
     -6.477  0.0000E+00  0.2400E+00
     -6.350  0.0000E+00  0.2400E+00
     -6.223  0.0000E+00  0.2400E+00
     -6.096  0.0000E+00  0.2400E+00
     -5.968  0.0000E+00  0.2400E+00
     -5.841  0.0000E+00  0.2400E+00
     -5.714  0.1706E-19  0.2400E+00
     -5.587  0.4741E-09  0.2400E+00
     -5.460  0.1312E-03  0.2400E+00
     -5.333  0.1615E-01  0.2421E+00
     -5.206  0.1313E+00  0.2588E+00
     -5.079  0.9731E-02  0.2600E+00
     -4.952  0.8286E-07  0.2600E+00
     -4.824  0.0000E+00  0.2600E+00
     -4.697  0.0000E+00  0.2600E+00
     -4.570  0.0000E+00  0.2600E+00
     -4.443  0.0000E+00  0.2600E+00
     -4.316  0.0000E+00  0.2600E+00
     -4.189  0.0000E+00  0.2600E+00
     -4.062  0.0000E+00  0.2600E+00
     -3.935  0.0000E+00  0.2600E+00
     -3.808  0.0000E+00  0.2600E+00
     -3.680  0.0000E+00  0.2600E+00
     -3.553  0.0000E+00  0.2600E+00
     -3.426  0.0000E+00  0.2600E+00
     -3.299  0.0000E+00  0.2600E+00
     -3.172  0.0000E+00  0.2600E+00
     -3.045  0.0000E+00  0.2600E+00
     -2.918  0.0000E+00  0.2600E+00
     -2.791  0.0000E+00  0.2600E+00
     -2.664  0.0000E+00  0.2600E+00
     -2.536  0.0000E+00  0.2600E+00
     -2.409  0.0000E+00  0.2600E+00
     -2.282  0.0000E+00  0.2600E+00
     -2.155  0.0000E+00  0.2600E+00
     -2.028  0.0000E+00  0.2600E+00
     -1.901  0.0000E+00  0.2600E+00
     -1.774  0.0000E+00  0.2600E+00
     -1.647  0.0000E+00  0.2600E+00
     -1.520  0.0000E+00  0.2600E+00
     -1.392  0.0000E+00  0.2600E+00
     -1.265  0.0000E+00  0.2600E+00
     -1.138  0.0000E+00  0.2600E+00
     -1.011  0.0000E+00  0.2600E+00
     -0.884  0.0000E+00  0.2600E+00
     -0.757  0.0000E+00  0.2600E+00
     -0.630  0.0000E+00  0.2600E+00
     -0.503  0.0000E+00  0.2600E+00
     -0.376  0.0000E+00  0.2600E+00
     -0.249  0.0000E+00  0.2600E+00
     -0.121  0.0000E+00  0.2600E+00
      0.006  0.0000E+00  0.2600E+00
      0.133  0.0000E+00  0.2600E+00
      0.260  0.0000E+00  0.2600E+00
      0.387  0.6591E-12  0.2600E+00
      0.514  0.7569E-05  0.2600E+00
      0.641  0.1777E-02  0.2602E+00
      0.768  0.1865E-01  0.2626E+00
      0.895  0.6140E-01  0.2704E+00
      1.023  0.4195E-01  0.2757E+00
      1.150  0.2574E-01  0.2790E+00
      1.277  0.1778E-01  0.2813E+00
      1.404  0.5312E-01  0.2880E+00
      1.531  0.1196E+00  0.3032E+00
      1.658  0.8772E-01  0.3144E+00
      1.785  0.4122E-01  0.3196E+00
      1.912  0.3075E-02  0.3200E+00
      2.039  0.4804E-06  0.3200E+00
      2.167  0.1138E-14  0.3200E+00
      2.294  0.0000E+00  0.3200E+00
      2.421  0.1062E-12  0.3200E+00
      2.548  0.1550E-05  0.3200E+00
      2.675  0.2586E-03  0.3200E+00
      2.802  0.4712E-04  0.3200E+00
      2.929  0.5980E-09  0.3200E+00
      3.056  0.1845E-04  0.3200E+00
      3.183  0.4178E-02  0.3206E+00
      3.311  0.2049E-02  0.3208E+00
      3.438  0.7584E-02  0.3218E+00
      3.565  0.5857E-02  0.3225E+00
      3.692  0.2208E-01  0.3253E+00
      3.819  0.1183E-01  0.3269E+00
      3.946  0.1712E-01  0.3290E+00
      4.073  0.5167E-01  0.3356E+00
      4.200  0.3772E-01  0.3404E+00
      4.327  0.4747E-01  0.3464E+00
      4.455  0.5768E-01  0.3538E+00
      4.582  0.5521E-01  0.3608E+00
      4.709  0.2664E-01  0.3642E+00
      4.836  0.4542E-01  0.3699E+00
      4.963  0.6835E-01  0.3786E+00
      5.090  0.5880E-01  0.3861E+00
      5.217  0.6792E-01  0.3947E+00
      5.344  0.3795E-01  0.3995E+00
      5.471  0.2707E-02  0.3999E+00
      5.598  0.8237E-03  0.4000E+00
      5.726  0.1021E-04  0.4000E+00
      5.853  0.1857E-11  0.4000E+00
      5.980  0.0000E+00  0.4000E+00
      6.107  0.0000E+00  0.4000E+00
      6.234  0.0000E+00  0.4000E+00
      6.361  0.0000E+00  0.4000E+00
      6.488  0.0000E+00  0.4000E+00
      6.615  0.0000E+00  0.4000E+00
      6.742  0.0000E+00  0.4000E+00
      6.870  0.0000E+00  0.4000E+00
      6.997  0.0000E+00  0.4000E+00
      7.124  0.0000E+00  0.4000E+00
      7.251  0.0000E+00  0.4000E+00
