    4    4  100    1
  0.4184331E+02  0.6185863E-09  0.6185863E-09  0.6185863E-09  0.5000000E-15
  1.000000000000000E-004
  CAR 
 unknown system                          
     32     29     20
 
  0.0000000E+00  0.0000000E+00  0.0000000E+00  0.1953125E-02
    1      -29.148450   1.000000
    2      -29.137313   1.000000
    3      -21.086739   1.000000
    4      -12.687737   1.000000
    5      -12.687736   1.000000
    6      -12.687735   1.000000
    7      -12.631772   1.000000
    8      -12.631770   1.000000
    9      -12.631769   1.000000
   10       -7.937141   1.000000
   11       -7.937131   1.000000
   12       -7.937122   1.000000
   13       -5.421562   1.000000
   14        1.791070   1.000000
   15        1.791085   1.000000
   16        1.791101   1.000000
   17        2.638840   0.000000
   18        3.979349   0.000000
   19        3.979350   0.000000
   20        4.481550   0.000000
 
  0.1250000E+00  0.0000000E+00  0.0000000E+00  0.1562500E-01
    1      -29.147996   1.000000
    2      -29.137721   1.000000
    3      -21.086892   1.000000
    4      -12.687632   1.000000
    5      -12.686012   1.000000
    6      -12.686010   1.000000
    7      -12.634187   1.000000
    8      -12.634185   1.000000
    9      -12.632535   1.000000
   10       -7.946986   1.000000
   11       -7.935901   1.000000
   12       -7.935889   1.000000
   13       -5.390147   1.000000
   14        1.423640   1.000000
   15        1.721703   1.000000
   16        1.721724   1.000000
   17        3.146655   0.000000
   18        4.179886   0.000000
   19        4.179887   0.000000
   20        4.411031   0.000000
 
  0.2500000E+00  0.0000000E+00  0.0000000E+00  0.1562500E-01
    1      -29.146733   1.000000
    2      -29.138873   1.000000
    3      -21.087301   1.000000
    4      -12.685070   1.000000
    5      -12.680912   1.000000
    6      -12.680910   1.000000
    7      -12.640963   1.000000
    8      -12.640962   1.000000
    9      -12.636925   1.000000
   10       -7.968062   1.000000
   11       -7.932924   1.000000
   12       -7.932912   1.000000
   13       -5.318893   1.000000
   14        0.983387   1.000000
   15        1.584038   1.000000
   16        1.584058   1.000000
   17        3.817852   0.000000
   18        4.531154   0.000000
   19        4.670256   0.000000
   20        4.672905   0.000000
 
  0.3750000E+00  0.0000000E+00  0.0000000E+00  0.1562500E-01
    1      -29.144866   1.000000
    2      -29.140622   1.000000
    3      -21.087713   1.000000
    4      -12.677617   1.000000
    5      -12.672943   1.000000
    6      -12.672941   1.000000
    7      -12.650613   1.000000
    8      -12.650611   1.000000
    9      -12.646383   1.000000
   10       -7.985679   1.000000
   11       -7.929956   1.000000
   12       -7.929944   1.000000
   13       -5.253627   1.000000
   14        0.700651   1.000000
   15        1.473783   1.000000
   16        1.473803   1.000000
   17        4.164862   0.000000
   18        4.876808   0.000000
   19        4.876810   0.000000
   20        5.155363   0.000000
 
  0.5000000E+00  0.0000000E+00  0.0000000E+00  0.7812500E-02
    1      -29.142741   1.000000
    2      -29.142695   1.000000
    3      -21.087874   1.000000
    4      -12.670372   1.000000
    5      -12.665372   1.000000
    6      -12.665369   1.000000
    7      -12.658890   1.000000
    8      -12.658890   1.000000
    9      -12.654499   1.000000
   10       -7.992069   1.000000
   11       -7.928725   1.000000
   12       -7.928713   1.000000
   13       -5.228207   1.000000
   14        0.602630   1.000000
   15        1.433698   1.000000
   16        1.433718   1.000000
   17        4.455323   0.000000
   18        4.996691   0.000000
   19        4.996693   0.000000
   20        5.112754   0.000000
 
  0.0000000E+00  0.1250000E+00  0.0000000E+00  0.1171875E-01
    1      -29.147869   1.000000
    2      -29.137834   1.000000
    3      -21.086948   1.000000
    4      -12.691192   1.000000
    5      -12.691192   1.000000
    6      -12.676587   1.000000
    7      -12.642707   1.000000
    8      -12.629755   1.000000
    9      -12.629755   1.000000
   10       -7.949870   1.000000
   11       -7.935414   1.000000
   12       -7.935414   1.000000
   13       -5.382033   1.000000
   14        1.284749   1.000000
   15        1.775347   1.000000
   16        1.775347   1.000000
   17        3.158156   0.000000
   18        4.087759   0.000000
   19        4.225783   0.000000
   20        4.435555   0.000000
 
  0.1250000E+00  0.1250000E+00  0.0000000E+00  0.4687500E-01
    1      -29.146933   1.000000
    2      -29.138676   1.000000
    3      -21.087282   1.000000
    4      -12.692733   1.000000
    5      -12.692210   1.000000
    6      -12.665519   1.000000
    7      -12.654343   1.000000
    8      -12.630447   1.000000
    9      -12.629949   1.000000
   10       -7.964829   1.000000
   11       -7.933975   1.000000
   12       -7.932979   1.000000
   13       -5.330372   1.000000
   14        0.996551   1.000000
   15        1.643831   1.000000
   16        1.701759   1.000000
   17        3.655646   0.000000
   18        4.096405   0.000000
   19        4.377309   0.000000
   20        4.771942   0.000000
 
  0.2500000E+00  0.1250000E+00  0.0000000E+00  0.4687500E-01
    1      -29.145363   1.000000
    2      -29.140135   1.000000
    3      -21.087700   1.000000
    4      -12.689485   1.000000
    5      -12.688517   1.000000
    6      -12.667549   1.000000
    7      -12.653313   1.000000
    8      -12.635823   1.000000
    9      -12.635769   1.000000
   10       -7.979097   1.000000
   11       -7.933465   1.000000
   12       -7.930018   1.000000
   13       -5.271148   1.000000
   14        0.794034   1.000000
   15        1.464796   1.000000
   16        1.574427   1.000000
   17        3.975836   0.000000
   18        4.535473   0.000000
   19        4.874831   0.000000
   20        5.038873   0.000000
 
  0.3750000E+00  0.1250000E+00  0.0000000E+00  0.4687500E-01
    1      -29.143418   1.000000
    2      -29.142008   1.000000
    3      -21.087938   1.000000
    4      -12.686403   1.000000
    5      -12.680293   1.000000
    6      -12.673850   1.000000
    7      -12.646841   1.000000
    8      -12.644701   1.000000
    9      -12.641638   1.000000
   10       -7.985614   1.000000
   11       -7.933865   1.000000
   12       -7.928267   1.000000
   13       -5.237198   1.000000
   14        0.695186   1.000000
   15        1.388976   1.000000
   16        1.473672   1.000000
   17        4.297781   0.000000
   18        4.938776   0.000000
   19        5.002791   0.000000
   20        5.060552   0.000000
 
  0.5000000E+00  0.1250000E+00  0.0000000E+00  0.4687500E-01
    1      -29.144028   1.000000
    2      -29.141413   1.000000
    3      -21.087883   1.000000
    4      -12.692972   1.000000
    5      -12.668793   1.000000
    6      -12.666242   1.000000
    7      -12.657386   1.000000
    8      -12.655457   1.000000
    9      -12.632191   1.000000
   10       -7.983628   1.000000
   11       -7.934542   1.000000
   12       -7.928742   1.000000
   13       -5.243115   1.000000
   14        0.714453   1.000000
   15        1.437651   1.000000
   16        1.439976   1.000000
   17        4.305450   0.000000
   18        4.809536   0.000000
   19        4.846554   0.000000
   20        5.121505   0.000000
 
 -0.3750000E+00  0.1250000E+00  0.0000000E+00  0.4687500E-01
    1      -29.145891   1.000000
    2      -29.139641   1.000000
    3      -21.087556   1.000000
    4      -12.696374   1.000000
    5      -12.673787   1.000000
    6      -12.667350   1.000000
    7      -12.655178   1.000000
    8      -12.648935   1.000000
    9      -12.627159   1.000000
   10       -7.973757   1.000000
   11       -7.934959   1.000000
   12       -7.931167   1.000000
   13       -5.286854   1.000000
   14        0.858595   1.000000
   15        1.479288   1.000000
   16        1.588418   1.000000
   17        3.990133   0.000000
   18        4.447294   0.000000
   19        4.651274   0.000000
   20        4.870302   0.000000
 
 -0.2500000E+00  0.1250000E+00  0.0000000E+00  0.2343750E-01
    1      -29.147298   1.000000
    2      -29.138352   1.000000
    3      -21.087146   1.000000
    4      -12.693899   1.000000
    5      -12.681771   1.000000
    6      -12.677663   1.000000
    7      -12.643193   1.000000
    8      -12.639216   1.000000
    9      -12.627904   1.000000
   10       -7.958658   1.000000
   11       -7.935217   1.000000
   12       -7.934132   1.000000
   13       -5.348264   1.000000
   14        1.124347   1.000000
   15        1.590196   1.000000
   16        1.732105   1.000000
   17        3.544743   0.000000
   18        4.285892   0.000000
   19        4.395847   0.000000
   20        4.538593   0.000000
 
  0.0000000E+00  0.2500000E+00  0.0000000E+00  0.1171875E-01
    1      -29.146472   1.000000
    2      -29.139077   1.000000
    3      -21.087512   1.000000
    4      -12.699320   1.000000
    5      -12.699320   1.000000
    6      -12.669112   1.000000
    7      -12.649519   1.000000
    8      -12.625098   1.000000
    9      -12.625098   1.000000
   10       -7.972717   1.000000
   11       -7.931318   1.000000
   12       -7.931318   1.000000
   13       -5.313267   1.000000
   14        0.879677   1.000000
   15        1.743962   1.000000
   16        1.743962   1.000000
   17        3.705320   0.000000
   18        3.720791   0.000000
   19        4.410689   0.000000
   20        4.973413   0.000000
 
  0.1250000E+00  0.2500000E+00  0.0000000E+00  0.4687500E-01
    1      -29.145430   1.000000
    2      -29.140024   1.000000
    3      -21.087834   1.000000
    4      -12.701278   1.000000
    5      -12.700750   1.000000
    6      -12.682371   1.000000
    7      -12.635689   1.000000
    8      -12.625812   1.000000
    9      -12.625347   1.000000
   10       -7.979498   1.000000
   11       -7.932089   1.000000
   12       -7.928912   1.000000
   13       -5.282640   1.000000
   14        0.841102   1.000000
   15        1.600382   1.000000
   16        1.681092   1.000000
   17        3.633103   0.000000
   18        4.109945   0.000000
   19        4.765568   0.000000
   20        5.188813   0.000000
 
  0.2500000E+00  0.2500000E+00  0.0000000E+00  0.4687500E-01
    1      -29.143991   1.000000
    2      -29.141394   1.000000
    3      -21.088077   1.000000
    4      -12.703008   1.000000
    5      -12.695889   1.000000
    6      -12.685863   1.000000
    7      -12.633829   1.000000
    8      -12.630845   1.000000
    9      -12.625004   1.000000
   10       -7.977077   1.000000
   11       -7.939566   1.000000
   12       -7.927174   1.000000
   13       -5.257316   1.000000
   14        0.889666   1.000000
   15        1.365067   1.000000
   16        1.571582   1.000000
   17        3.852494   0.000000
   18        4.597644   0.000000
   19        5.063491   0.000000
   20        5.077261   0.000000
 
  0.3750000E+00  0.2500000E+00  0.0000000E+00  0.4687500E-01
    1      -29.142986   1.000000
    2      -29.142393   1.000000
    3      -21.088104   1.000000
    4      -12.706818   1.000000
    5      -12.685358   1.000000
    6      -12.676031   1.000000
    7      -12.647004   1.000000
    8      -12.640615   1.000000
    9      -12.619245   1.000000
   10       -7.969887   1.000000
   11       -7.948196   1.000000
   12       -7.927115   1.000000
   13       -5.247524   1.000000
   14        0.902076   1.000000
   15        1.292001   1.000000
   16        1.478827   1.000000
   17        4.275504   0.000000
   18        4.538904   0.000000
   19        4.929398   0.000000
   20        5.082921   0.000000
 
  0.5000000E+00  0.2500000E+00  0.0000000E+00  0.2343750E-01
    1      -29.144568   1.000000
    2      -29.140872   1.000000
    3      -21.087888   1.000000
    4      -12.704999   1.000000
    5      -12.670968   1.000000
    6      -12.662148   1.000000
    7      -12.661463   1.000000
    8      -12.653261   1.000000
    9      -12.619840   1.000000
   10       -7.972068   1.000000
   11       -7.943460   1.000000
   12       -7.928765   1.000000
   13       -5.257909   1.000000
   14        0.839101   1.000000
   15        1.441625   1.000000
   16        1.441734   1.000000
   17        4.304013   0.000000
   18        4.531215   0.000000
   19        4.741946   0.000000
   20        4.774552   0.000000
 
  0.0000000E+00  0.3750000E+00  0.0000000E+00  0.1171875E-01
    1      -29.145071   1.000000
    2      -29.140320   1.000000
    3      -21.088053   1.000000
    4      -12.707288   1.000000
    5      -12.707288   1.000000
    6      -12.695336   1.000000
    7      -12.622185   1.000000
    8      -12.620543   1.000000
    9      -12.620543   1.000000
   10       -7.985287   1.000000
   11       -7.927277   1.000000
   12       -7.927277   1.000000
   13       -5.283546   1.000000
   14        0.881593   1.000000
   15        1.720381   1.000000
   16        1.720381   1.000000
   17        3.310457   0.000000
   18        4.000070   0.000000
   19        4.938095   0.000000
   20        5.212371   0.000000
 
  0.1250000E+00  0.3750000E+00  0.0000000E+00  0.4687500E-01
    1      -29.144366   1.000000
    2      -29.140980   1.000000
    3      -21.088223   1.000000
    4      -12.710958   1.000000
    5      -12.706688   1.000000
    6      -12.698348   1.000000
    7      -12.622943   1.000000
    8      -12.621803   1.000000
    9      -12.614392   1.000000
   10       -7.982886   1.000000
   11       -7.931314   1.000000
   12       -7.926078   1.000000
   13       -5.275623   1.000000
   14        0.979369   1.000000
   15        1.553053   1.000000
   16        1.671074   1.000000
   17        3.388908   0.000000
   18        4.075003   0.000000
   19        5.179527   0.000000
   20        5.262423   0.000000
 
  0.2500000E+00  0.3750000E+00  0.0000000E+00  0.2343750E-01
    1      -29.143427   1.000000
    2      -29.141914   1.000000
    3      -21.088245   1.000000
    4      -12.712968   1.000000
    5      -12.698920   1.000000
    6      -12.689133   1.000000
    7      -12.632951   1.000000
    8      -12.628821   1.000000
    9      -12.613189   1.000000
   10       -7.970625   1.000000
   11       -7.945580   1.000000
   12       -7.926014   1.000000
   13       -5.261613   1.000000
   14        1.111535   1.000000
   15        1.225820   1.000000
   16        1.572269   1.000000
   17        3.769191   0.000000
   18        4.328480   0.000000
   19        5.131781   0.000000
   20        5.317320   0.000000
 
  0.0000000E+00  0.5000000E+00  0.0000000E+00  0.5859375E-02
    1      -29.144493   1.000000
    2      -29.140837   1.000000
    3      -21.088264   1.000000
    4      -12.710534   1.000000
    5      -12.710534   1.000000
    6      -12.706142   1.000000
    7      -12.618677   1.000000
    8      -12.618677   1.000000
    9      -12.610771   1.000000
   10       -7.987652   1.000000
   11       -7.925621   1.000000
   12       -7.925621   1.000000
   13       -5.282814   1.000000
   14        0.991308   1.000000
   15        1.712566   1.000000
   16        1.712566   1.000000
   17        3.158675   0.000000
   18        3.875254   0.000000
   19        5.180978   0.000000
   20        5.517600   0.000000
 
  0.1250000E+00  0.1250000E+00  0.1250000E+00  0.4687500E-01
    1      -29.145915   1.000000
    2      -29.139603   1.000000
    3      -21.087615   1.000000
    4      -12.700950   1.000000
    5      -12.687331   1.000000
    6      -12.668399   1.000000
    7      -12.651607   1.000000
    8      -12.637312   1.000000
    9      -12.623523   1.000000
   10       -7.973468   1.000000
   11       -7.934820   1.000000
   12       -7.930877   1.000000
   13       -5.291181   1.000000
   14        0.862320   1.000000
   15        1.552143   1.000000
   16        1.638398   1.000000
   17        3.978381   0.000000
   18        3.991390   0.000000
   19        4.710995   0.000000
   20        4.883783   0.000000
 
  0.2500000E+00  0.1250000E+00  0.1250000E+00  0.9375000E-01
    1      -29.144417   1.000000
    2      -29.141008   1.000000
    3      -21.087944   1.000000
    4      -12.703971   1.000000
    5      -12.681831   1.000000
    6      -12.676786   1.000000
    7      -12.648852   1.000000
    8      -12.638824   1.000000
    9      -12.622916   1.000000
   10       -7.976133   1.000000
   11       -7.939411   1.000000
   12       -7.928768   1.000000
   13       -5.257230   1.000000
   14        0.832376   1.000000
   15        1.419182   1.000000
   16        1.507921   1.000000
   17        4.091301   0.000000
   18        4.500582   0.000000
   19        4.856102   0.000000
   20        5.118376   0.000000
 
  0.3750000E+00  0.1250000E+00  0.1250000E+00  0.4687500E-01
    1      -29.142704   1.000000
    2      -29.142681   1.000000
    3      -21.088075   1.000000
    4      -12.703621   1.000000
    5      -12.687482   1.000000
    6      -12.666072   1.000000
    7      -12.660559   1.000000
    8      -12.629341   1.000000
    9      -12.627794   1.000000
   10       -7.975461   1.000000
   11       -7.942497   1.000000
   12       -7.927890   1.000000
   13       -5.244574   1.000000
   14        0.842320   1.000000
   15        1.332403   1.000000
   16        1.470579   1.000000
   17        4.385685   0.000000
   18        4.459919   0.000000
   19        4.994371   0.000000
   20        5.196331   0.000000
 
  0.1250000E+00  0.2500000E+00  0.1250000E+00  0.4687500E-01
    1      -29.144528   1.000000
    2      -29.140852   1.000000
    3      -21.088075   1.000000
    4      -12.710770   1.000000
    5      -12.694403   1.000000
    6      -12.692119   1.000000
    7      -12.633810   1.000000
    8      -12.623680   1.000000
    9      -12.619210   1.000000
   10       -7.978900   1.000000
   11       -7.934538   1.000000
   12       -7.928335   1.000000
   13       -5.269969   1.000000
   14        0.912520   1.000000
   15        1.553624   1.000000
   16        1.555848   1.000000
   17        3.667000   0.000000
   18        4.225890   0.000000
   19        5.021547   0.000000
   20        5.201071   0.000000
 
  0.2500000E+00  0.2500000E+00  0.1250000E+00  0.9375000E-01
    1      -29.143374   1.000000
    2      -29.141972   1.000000
    3      -21.088218   1.000000
    4      -12.715590   1.000000
    5      -12.695004   1.000000
    6      -12.681299   1.000000
    7      -12.647240   1.000000
    8      -12.620063   1.000000
    9      -12.616623   1.000000
   10       -7.968738   1.000000
   11       -7.945863   1.000000
   12       -7.928061   1.000000
   13       -5.259403   1.000000
   14        1.052802   1.000000
   15        1.302677   1.000000
   16        1.498439   1.000000
   17        3.966633   0.000000
   18        4.344049   0.000000
   19        4.856238   0.000000
   20        5.232795   0.000000
 
  0.3750000E+00  0.2500000E+00  0.1250000E+00  0.4687500E-01
    1      -29.143223   1.000000
    2      -29.142143   1.000000
    3      -21.088165   1.000000
    4      -12.713461   1.000000
    5      -12.690723   1.000000
    6      -12.664953   1.000000
    7      -12.663056   1.000000
    8      -12.627097   1.000000
    9      -12.616186   1.000000
   10       -7.963389   1.000000
   11       -7.952368   1.000000
   12       -7.928076   1.000000
   13       -5.253820   1.000000
   14        1.000135   1.000000
   15        1.289786   1.000000
   16        1.460573   1.000000
   17        4.295294   0.000000
   18        4.453862   0.000000
   19        4.575102   0.000000
   20        5.318275   0.000000
 
  0.1250000E+00  0.3750000E+00  0.1250000E+00  0.2343750E-01
    1      -29.143957   1.000000
    2      -29.141371   1.000000
    3      -21.088279   1.000000
    4      -12.717433   1.000000
    5      -12.699323   1.000000
    6      -12.697325   1.000000
    7      -12.632358   1.000000
    8      -12.617547   1.000000
    9      -12.611923   1.000000
   10       -7.978314   1.000000
   11       -7.934458   1.000000
   12       -7.927692   1.000000
   13       -5.271809   1.000000
   14        1.051420   1.000000
   15        1.519810   1.000000
   16        1.535324   1.000000
   17        3.552033   0.000000
   18        4.064773   0.000000
   19        5.205905   0.000000
   20        5.221625   0.000000
 
  0.2500000E+00  0.2500000E+00  0.2500000E+00  0.1171875E-01
    1      -29.142667   1.000000
    2      -29.142667   1.000000
    3      -21.088273   1.000000
    4      -12.721026   1.000000
    5      -12.695792   1.000000
    6      -12.665054   1.000000
    7      -12.665054   1.000000
    8      -12.615195   1.000000
    9      -12.614281   1.000000
   10       -7.956134   1.000000
   11       -7.956134   1.000000
   12       -7.929749   1.000000
   13       -5.260719   1.000000
   14        1.234727   1.000000
   15        1.234727   1.000000
   16        1.386344   1.000000
   17        4.197044   0.000000
   18        4.385883   0.000000
   19        4.385883   0.000000
   20        5.239838   0.000000
