       N       E                     dE             d eps       ncg     rms          rms(c)
DAV:   1     0.231664207028E+03    0.23166E+03   -0.13366E+04  1160   0.132E+03
DAV:   2     0.981083615200E+01   -0.22185E+03   -0.21546E+03  1468   0.325E+02
DAV:   3    -0.900046377055E+01   -0.18811E+02   -0.18740E+02  1828   0.811E+01
DAV:   4    -0.966813485506E+01   -0.66767E+00   -0.66425E+00  1652   0.154E+01
DAV:   5    -0.969449326091E+01   -0.26358E-01   -0.26354E-01  1632   0.211E+00    0.474E+00
DAV:   6    -0.877088638711E+01    0.92361E+00   -0.17108E+00  1312   0.459E+00    0.377E+00
DAV:   7    -0.866031655846E+01    0.11057E+00   -0.11148E+00  1660   0.292E+00    0.225E+00
DAV:   8    -0.867956618964E+01   -0.19250E-01   -0.27097E-01  1320   0.172E+00    0.580E-01
DAV:   9    -0.866298180180E+01    0.16584E-01   -0.89414E-02  1364   0.822E-01    0.234E-01
DAV:  10    -0.866411418400E+01   -0.11324E-02   -0.79679E-03  1596   0.278E-01    0.684E-02
DAV:  11    -0.866425025420E+01   -0.13607E-03   -0.31908E-04  1420   0.102E-01    0.739E-02
DAV:  12    -0.866424675750E+01    0.34967E-05   -0.39145E-05  1140   0.293E-02
   1 F= -.86642468E+01 E0= -.86642468E+01  d E =-.866425E+01
       N       E                     dE             d eps       ncg     rms          rms(c)
DAV:   1    -0.866528498704E+01   -0.10347E-02   -0.23795E-02  1284   0.123E+00    0.201E-01
DAV:   2    -0.866458611121E+01    0.69888E-03   -0.18220E-03  1628   0.338E-01    0.807E-02
DAV:   3    -0.866435119640E+01    0.23491E-03   -0.54068E-04  1552   0.166E-01    0.624E-02
DAV:   4    -0.866434796909E+01    0.32273E-05   -0.11394E-04  1764   0.333E-02    0.167E-02
DAV:   5    -0.866434596309E+01    0.20060E-05   -0.10263E-05   848   0.194E-02
   2 F= -.86643460E+01 E0= -.86643460E+01  d E =-.992056E-04
       N       E                     dE             d eps       ncg     rms          rms(c)
DAV:   1    -0.866526527554E+01   -0.91731E-03   -0.23078E-02  1260   0.121E+00    0.198E-01
DAV:   2    -0.866459918208E+01    0.66609E-03   -0.17476E-03  1620   0.332E-01    0.792E-02
DAV:   3    -0.866437510251E+01    0.22408E-03   -0.53543E-04  1588   0.164E-01    0.613E-02
DAV:   4    -0.866437223007E+01    0.28724E-05   -0.92977E-05  1548   0.306E-02    0.170E-02
DAV:   5    -0.866437020202E+01    0.20280E-05   -0.22851E-05  1068   0.247E-02
   3 F= -.86643702E+01 E0= -.86643702E+01  d E =-.123445E-03
       N       E                     dE             d eps       ncg     rms          rms(c)
DAV:   1    -0.866439416028E+01   -0.21930E-04   -0.55472E-04  1396   0.181E-01    0.308E-02
DAV:   2    -0.866437480340E+01    0.19357E-04   -0.49037E-05  1468   0.520E-02    0.139E-02
DAV:   3    -0.866436788172E+01    0.69217E-05   -0.13220E-05   744   0.275E-02    0.129E-02
DAV:   4    -0.866436876622E+01   -0.88450E-06   -0.31026E-06   732   0.139E-02    0.212E-03
DAV:   5    -0.866436888089E+01   -0.11467E-06   -0.20016E-06   724   0.971E-03
   4 F= -.86643689E+01 E0= -.86643689E+01  d E =-.122123E-03
