 vasp.5.4.4.18Apr17-6-g9f103f2a35 (build Jun 23 2019 17:35:09) complex          
  
 executed on             LinuxIFC date 2020.01.14  23:23:07
 running on   28 total cores
 distrk:  each k-point on    7 cores,    4 groups
 distr:  one band on NCORES_PER_BAND=   7 cores,    1 groups


--------------------------------------------------------------------------------------------------------


 INCAR:
 POTCAR:    PAW_PBE Cs_sv 08Apr2002               
 POTCAR:    PAW_PBE K_sv 06Sep2000                
 POTCAR:    PAW_PBE Sb 06Sep2000                  

 ----------------------------------------------------------------------------- 
|                                                                             |
|           W    W    AA    RRRRR   N    N  II  N    N   GGGG   !!!           |
|           W    W   A  A   R    R  NN   N  II  NN   N  G    G  !!!           |
|           W    W  A    A  R    R  N N  N  II  N N  N  G       !!!           |
|           W WW W  AAAAAA  RRRRR   N  N N  II  N  N N  G  GGG   !            |
|           WW  WW  A    A  R   R   N   NN  II  N   NN  G    G                |
|           W    W  A    A  R    R  N    N  II  N    N   GGGG   !!!           |
|                                                                             |
|      You have enabled k-point parallelism (KPAR>1).                         |
|      This developmental code was originally  written by Paul Kent at ORNL,  |
|      and carefully double checked in Vienna.                                |
|      GW as well as linear response parallelism added by Martijn Marsman     |
|      and Georg Kresse.                                                      |
|      Carefully verify results versus KPAR=1.                                |
|      Report problems to Paul Kent and Vienna.                               |
|                                                                             |
 ----------------------------------------------------------------------------- 

 POTCAR:    PAW_PBE Cs_sv 08Apr2002               
   VRHFIN =Cs: 5s5p6s                                                           
   LEXCH  = PE                                                                  
   EATOM  =   555.6835 eV,   40.8416 Ry                                         
                                                                                
   TITEL  = PAW_PBE Cs_sv 08Apr2002                                             
   LULTRA =        F    use ultrasoft PP ?                                      
   IUNSCR =        1    unscreen: 0-lin 1-nonlin 2-no                           
   RPACOR =    2.200    partial core radius                                     
   POMASS =  132.900; ZVAL   =    9.000    mass and valenz                      
   RCORE  =    2.500    outmost cutoff radius                                   
   RWIGS  =    2.500; RWIGS  =    1.323    wigner-seitz radius (au A)           
   ENMAX  =  220.318; ENMIN  =  165.238 eV                                      
   RCLOC  =    2.207    cutoff for local pot                                    
   LCOR   =        T    correct aug charges                                     
   LPAW   =        T    paw PP                                                  
   EAUG   =  407.933                                                            
   DEXC   =    0.000                                                            
   RMAX   =    2.554    core radius for proj-oper                               
   RAUG   =    1.300    factor for augmentation sphere                          
   RDEP   =    2.590    radius for radial grids                                 
   RDEPT  =    2.117    core radius for aug-charge                              
                                                                                
   Atomic configuration                                                         
   13 entries                                                                   
     n  l   j            E        occ.                                          
     1  0  0.50    -35790.1377   2.0000                                         
     2  0  0.50     -5613.6201   2.0000                                         
     2  1  1.50     -5035.0101   6.0000                                         
     3  0  0.50     -1167.0767   2.0000                                         
     3  1  1.50      -980.9754   6.0000                                         
     3  2  2.50      -708.0703  10.0000                                         
     4  0  0.50      -220.2386   2.0000                                         
     4  1  1.50      -160.7596   6.0000                                         
     4  2  2.50       -74.2354  10.0000                                         
     5  0  0.50       -26.7287   2.0000                                         
     6  0  0.50        -2.0862   1.0000                                         
     5  1  1.50       -13.5159   6.0000                                         
     5  2  2.50        -0.4136   0.0000                                         
   Description                                                                  
     l       E           TYP  RCUT    TYP  RCUT                                 
     0    -26.7287425     23  1.900                                             
     0     -2.0862306     23  1.900                                             
     1    -13.5158719     23  2.500                                             
     1     -2.7211652     23  2.500                                             
     2     -0.4136171     23  2.500                                             
  local pseudopotential read in
  partial core-charges read in
  partial kinetic energy density read in
  atomic valenz-charges read in
  non local Contribution for L=           0  read in
    real space projection operators read in
  non local Contribution for L=           0  read in
    real space projection operators read in
  non local Contribution for L=           1  read in
    real space projection operators read in
  non local Contribution for L=           1  read in
    real space projection operators read in
  non local Contribution for L=           2  read in
    real space projection operators read in
    PAW grid and wavefunctions read in
 
   number of l-projection  operators is LMAX  =           5
   number of lm-projection operators is LMMAX =          13
 
 POTCAR:    PAW_PBE K_sv 06Sep2000                
   VRHFIN =K:  3s3p4s                                                           
   LEXCH  = PE                                                                  
   EATOM  =   775.0067 eV,   56.9614 Ry                                         
                                                                                
   TITEL  = PAW_PBE K_sv 06Sep2000                                              
   LULTRA =        F    use ultrasoft PP ?                                      
   IUNSCR =        1    unscreen: 0-lin 1-nonlin 2-no                           
   RPACOR =    2.200    partial core radius                                     
   POMASS =   39.098; ZVAL   =    9.000    mass and valenz                      
   RCORE  =    2.300    outmost cutoff radius                                   
   RWIGS  =    3.000; RWIGS  =    1.588    wigner-seitz radius (au A)           
   ENMAX  =  259.264; ENMIN  =  194.448 eV                                      
   RCLOC  =    2.005    cutoff for local pot                                    
   LCOR   =        T    correct aug charges                                     
   LPAW   =        T    paw PP                                                  
   EAUG   =  427.853                                                            
   DEXC   =    0.000                                                            
   RMAX   =    2.358    core radius for proj-oper                               
   RAUG   =    1.300    factor for augmentation sphere                          
   RDEP   =    2.372    radius for radial grids                                 
   RDEPT  =    2.002    core radius for aug-charge                              
                                                                                
   Atomic configuration                                                         
    7 entries                                                                   
     n  l   j            E        occ.                                          
     1  0  0.50     -3522.0595   2.0000                                         
     2  0  0.50      -353.3851   2.0000                                         
     2  1  1.50      -280.0935   6.0000                                         
     3  0  0.50       -35.3419   2.0000                                         
     4  0  0.50        -2.3190   1.0000                                         
     3  1  1.50       -18.8125   6.0000                                         
     3  2  1.50        -1.3606   0.0000                                         
   Description                                                                  
     l       E           TYP  RCUT    TYP  RCUT                                 
     0    -35.3418873     23  2.300                                             
     0     -2.3190215     23  2.300                                             
     1    -18.8124623     23  2.300                                             
     1    -20.4087390     23  2.300                                             
     2     -1.3605826     23  2.300                                             
  local pseudopotential read in
  partial core-charges read in
  partial kinetic energy density read in
  atomic valenz-charges read in
  non local Contribution for L=           0  read in
    real space projection operators read in
  non local Contribution for L=           0  read in
    real space projection operators read in
  non local Contribution for L=           1  read in
    real space projection operators read in
  non local Contribution for L=           1  read in
    real space projection operators read in
  non local Contribution for L=           2  read in
    real space projection operators read in
    PAW grid and wavefunctions read in
 
   number of l-projection  operators is LMAX  =           5
   number of lm-projection operators is LMMAX =          13
 
 POTCAR:    PAW_PBE Sb 06Sep2000                  
   VRHFIN =Sb: s2p3                                                             
   LEXCH  = PE                                                                  
   EATOM  =   149.9515 eV,   11.0211 Ry                                         
                                                                                
   TITEL  = PAW_PBE Sb 06Sep2000                                                
   LULTRA =        F    use ultrasoft PP ?                                      
   IUNSCR =        1    unscreen: 0-lin 1-nonlin 2-no                           
   RPACOR =    2.200    partial core radius                                     
   POMASS =  121.750; ZVAL   =    5.000    mass and valenz                      
   RCORE  =    2.300    outmost cutoff radius                                   
   RWIGS  =    2.980; RWIGS  =    1.577    wigner-seitz radius (au A)           
   ENMAX  =  172.069; ENMIN  =  129.052 eV                                      
   ICORE  =        3    local potential                                         
   LCOR   =        T    correct aug charges                                     
   LPAW   =        T    paw PP                                                  
   EAUG   =  380.513                                                            
   DEXC   =    0.000                                                            
   RMAX   =    2.346    core radius for proj-oper                               
   RAUG   =    1.300    factor for augmentation sphere                          
   RDEP   =    2.360    radius for radial grids                                 
   RDEPT  =    2.192    core radius for aug-charge                              
                                                                                
   Atomic configuration                                                         
   13 entries                                                                   
     n  l   j            E        occ.                                          
     1  0  0.50    -30298.2797   2.0000                                         
     2  0  0.50     -4610.2252   2.0000                                         
     2  1  1.50     -4138.3407   6.0000                                         
     3  0  0.50      -903.8815   2.0000                                         
     3  1  1.50      -750.1337   6.0000                                         
     3  2  2.50      -515.7092  10.0000                                         
     4  0  0.50      -148.8034   2.0000                                         
     4  1  1.50      -101.7581   6.0000                                         
     4  2  2.50       -33.5048  10.0000                                         
     5  0  0.50       -12.8298   2.0000                                         
     5  1  0.50        -4.8276   3.0000                                         
     5  2  1.50        -4.0817   0.0000                                         
     4  3  2.50        -4.0817   0.0000                                         
   Description                                                                  
     l       E           TYP  RCUT    TYP  RCUT                                 
     0    -12.8297861     23  2.300                                             
     0     13.6058260     23  2.300                                             
     1     -4.8275512     23  2.300                                             
     1     -0.7245443     23  2.300                                             
     2     -4.0817478     23  2.300                                             
     3     -1.3605826     23  2.300                                             
  local pseudopotential read in
  partial core-charges read in
  partial kinetic energy density read in
  atomic valenz-charges read in
  non local Contribution for L=           0  read in
    real space projection operators read in
  non local Contribution for L=           0  read in
    real space projection operators read in
  non local Contribution for L=           1  read in
    real space projection operators read in
  non local Contribution for L=           1  read in
    real space projection operators read in
  non local Contribution for L=           2  read in
    real space projection operators read in
    PAW grid and wavefunctions read in
 
   number of l-projection  operators is LMAX  =           5
   number of lm-projection operators is LMMAX =          13
 
  PAW_PBE Cs_sv 08Apr2002               :
 energy of atom  1       EATOM= -555.6835
 kinetic energy error for atom=    0.0016 (will be added to EATOM!!)
  PAW_PBE K_sv 06Sep2000                :
 energy of atom  2       EATOM= -775.0067
 kinetic energy error for atom=    0.0014 (will be added to EATOM!!)
  PAW_PBE Sb 06Sep2000                  :
 energy of atom  3       EATOM= -149.9515
 kinetic energy error for atom=    0.0005 (will be added to EATOM!!)
 
 
 POSCAR: Cs Sb K                                 
  positions in direct lattice
  No initial velocities read in
 exchange correlation table for  LEXCH =        8
   RHO(1)=    0.500       N(1)  =     2000
   RHO(2)=  100.500       N(2)  =     4000
 


--------------------------------------------------------------------------------------------------------


 ion  position               nearest neighbor table
   1  0.500  0.000  0.500-
   2  0.750  0.500  0.250-   4 3.79   4 3.79   4 3.79   4 3.79
   3  0.250  0.500  0.750-   4 3.79   4 3.79   4 3.79   4 3.79
   4  0.000  0.000  0.000-   2 3.79   3 3.79   2 3.79   3 3.79   2 3.79   3 3.79   2 3.79   3 3.79

 
  LATTYP: Found a face centered cubic cell.
 ALAT       =     8.7481320000
  
  Lattice vectors:
  
 A1 = (  -4.3740660000,   0.0000000000,  -4.3740660000)
 A2 = (   0.0000000000,  -4.3740660000,  -4.3740660000)
 A3 = (  -4.3740660000,  -4.3740660000,   0.0000000000)


Analysis of symmetry for initial positions (statically):
=====================================================================
 Subroutine PRICEL returns:
 Original cell was already a primitive cell.
 

 Routine SETGRP: Setting up the symmetry group for a 
 face centered cubic supercell.


 Subroutine GETGRP returns: Found 48 space group operations
 (whereof 48 operations were pure point group operations)
 out of a pool of 48 trial point group operations.


The static configuration has the point symmetry O_h .


Analysis of symmetry for dynamics (positions and initial velocities):
=====================================================================
 Subroutine PRICEL returns:
 Original cell was already a primitive cell.
 

 Routine SETGRP: Setting up the symmetry group for a 
 face centered cubic supercell.


 Subroutine GETGRP returns: Found 48 space group operations
 (whereof 48 operations were pure point group operations)
 out of a pool of 48 trial point group operations.


The dynamic configuration has the point symmetry O_h .


 Subroutine INISYM returns: Found 48 space group operations
 (whereof 48 operations are pure point group operations),
 and found     1 'primitive' translations

 
 
 KPOINTS: KPOINTS                                 

Automatic generation of k-mesh.
Space group operators:
 irot       det(A)        alpha          n_x          n_y          n_z        tau_x        tau_y        tau_z
    1     1.000000     0.000000     1.000000     0.000000     0.000000     0.000000     0.000000     0.000000
    2    -1.000000     0.000000     1.000000     0.000000     0.000000     0.000000     0.000000     0.000000
    3     1.000000   120.000000     0.577350     0.577350     0.577350     0.000000     0.000000     0.000000
    4    -1.000000   120.000000     0.577350     0.577350     0.577350     0.000000     0.000000     0.000000
    5     1.000000   120.000000    -0.577350    -0.577350    -0.577350     0.000000     0.000000     0.000000
    6    -1.000000   120.000000    -0.577350    -0.577350    -0.577350     0.000000     0.000000     0.000000
    7     1.000000    90.000000     0.000000     0.000000     1.000000     0.000000     0.000000     0.000000
    8    -1.000000    90.000000     0.000000     0.000000     1.000000     0.000000     0.000000     0.000000
    9     1.000000   180.000000     0.707107     0.000000     0.707107     0.000000     0.000000     0.000000
   10    -1.000000   180.000000     0.707107     0.000000     0.707107     0.000000     0.000000     0.000000
   11     1.000000    90.000000    -1.000000     0.000000     0.000000     0.000000     0.000000     0.000000
   12    -1.000000    90.000000    -1.000000     0.000000     0.000000     0.000000     0.000000     0.000000
   13     1.000000   180.000000     0.000000     0.000000     1.000000     0.000000     0.000000     0.000000
   14    -1.000000   180.000000     0.000000     0.000000     1.000000     0.000000     0.000000     0.000000
   15     1.000000   120.000000    -0.577350     0.577350    -0.577350     0.000000     0.000000     0.000000
   16    -1.000000   120.000000    -0.577350     0.577350    -0.577350     0.000000     0.000000     0.000000
   17     1.000000   120.000000    -0.577350     0.577350     0.577350     0.000000     0.000000     0.000000
   18    -1.000000   120.000000    -0.577350     0.577350     0.577350     0.000000     0.000000     0.000000
   19     1.000000    90.000000     0.000000     0.000000    -1.000000     0.000000     0.000000     0.000000
   20    -1.000000    90.000000     0.000000     0.000000    -1.000000     0.000000     0.000000     0.000000
   21     1.000000    90.000000     0.000000     1.000000     0.000000     0.000000     0.000000     0.000000
   22    -1.000000    90.000000     0.000000     1.000000     0.000000     0.000000     0.000000     0.000000
   23     1.000000   180.000000     0.000000     0.707107     0.707107     0.000000     0.000000     0.000000
   24    -1.000000   180.000000     0.000000     0.707107     0.707107     0.000000     0.000000     0.000000
   25     1.000000   120.000000     0.577350    -0.577350    -0.577350     0.000000     0.000000     0.000000
   26    -1.000000   120.000000     0.577350    -0.577350    -0.577350     0.000000     0.000000     0.000000
   27     1.000000   120.000000     0.577350     0.577350    -0.577350     0.000000     0.000000     0.000000
   28    -1.000000   120.000000     0.577350     0.577350    -0.577350     0.000000     0.000000     0.000000
   29     1.000000   180.000000     0.000000     1.000000     0.000000     0.000000     0.000000     0.000000
   30    -1.000000   180.000000     0.000000     1.000000     0.000000     0.000000     0.000000     0.000000
   31     1.000000    90.000000     1.000000     0.000000     0.000000     0.000000     0.000000     0.000000
   32    -1.000000    90.000000     1.000000     0.000000     0.000000     0.000000     0.000000     0.000000
   33     1.000000   180.000000     0.707107     0.707107     0.000000     0.000000     0.000000     0.000000
   34    -1.000000   180.000000     0.707107     0.707107     0.000000     0.000000     0.000000     0.000000
   35     1.000000    90.000000     0.000000    -1.000000     0.000000     0.000000     0.000000     0.000000
   36    -1.000000    90.000000     0.000000    -1.000000     0.000000     0.000000     0.000000     0.000000
   37     1.000000   120.000000     0.577350    -0.577350     0.577350     0.000000     0.000000     0.000000
   38    -1.000000   120.000000     0.577350    -0.577350     0.577350     0.000000     0.000000     0.000000
   39     1.000000   180.000000     1.000000     0.000000     0.000000     0.000000     0.000000     0.000000
   40    -1.000000   180.000000     1.000000     0.000000     0.000000     0.000000     0.000000     0.000000
   41     1.000000   120.000000    -0.577350    -0.577350     0.577350     0.000000     0.000000     0.000000
   42    -1.000000   120.000000    -0.577350    -0.577350     0.577350     0.000000     0.000000     0.000000
   43     1.000000   180.000000     0.707107     0.000000    -0.707107     0.000000     0.000000     0.000000
   44    -1.000000   180.000000     0.707107     0.000000    -0.707107     0.000000     0.000000     0.000000
   45     1.000000   180.000000     0.707107    -0.707107     0.000000     0.000000     0.000000     0.000000
   46    -1.000000   180.000000     0.707107    -0.707107     0.000000     0.000000     0.000000     0.000000
   47     1.000000   180.000000     0.000000    -0.707107     0.707107     0.000000     0.000000     0.000000
   48    -1.000000   180.000000     0.000000    -0.707107     0.707107     0.000000     0.000000     0.000000
 
 Subroutine IBZKPT returns following result:
 ===========================================
 
 Found     29 irreducible k-points:
 
 Following reciprocal coordinates:
            Coordinates               Weight
  0.000000  0.000000  0.000000      1.000000
  0.125000  0.000000  0.000000      8.000000
  0.250000  0.000000  0.000000      8.000000
  0.375000  0.000000  0.000000      8.000000
  0.500000  0.000000  0.000000      4.000000
  0.000000  0.125000  0.000000      6.000000
  0.125000  0.125000  0.000000     24.000000
  0.250000  0.125000  0.000000     24.000000
  0.375000  0.125000  0.000000     24.000000
  0.500000  0.125000  0.000000     24.000000
 -0.375000  0.125000  0.000000     24.000000
 -0.250000  0.125000  0.000000     12.000000
  0.000000  0.250000  0.000000      6.000000
  0.125000  0.250000  0.000000     24.000000
  0.250000  0.250000  0.000000     24.000000
  0.375000  0.250000  0.000000     24.000000
  0.500000  0.250000  0.000000     12.000000
  0.000000  0.375000  0.000000      6.000000
  0.125000  0.375000  0.000000     24.000000
  0.250000  0.375000  0.000000     12.000000
  0.000000  0.500000  0.000000      3.000000
  0.125000  0.125000  0.125000     24.000000
  0.250000  0.125000  0.125000     48.000000
  0.375000  0.125000  0.125000     24.000000
  0.125000  0.250000  0.125000     24.000000
  0.250000  0.250000  0.125000     48.000000
  0.375000  0.250000  0.125000     24.000000
  0.125000  0.375000  0.125000     12.000000
  0.250000  0.250000  0.250000      6.000000
 
 Following cartesian coordinates:
            Coordinates               Weight
  0.000000  0.000000  0.000000      1.000000
  0.014289 -0.014289 -0.014289      8.000000
  0.028578 -0.028578 -0.028578      8.000000
  0.042866 -0.042866 -0.042866      8.000000
  0.057155 -0.057155 -0.057155      4.000000
  0.000000  0.000000 -0.028578      6.000000
  0.014289 -0.014289 -0.042866     24.000000
  0.028578 -0.028578 -0.057155     24.000000
  0.042866 -0.042866 -0.071444     24.000000
  0.057155 -0.057155 -0.085733     24.000000
 -0.042866  0.042866  0.014289     24.000000
 -0.028578  0.028578  0.000000     12.000000
  0.000000  0.000000 -0.057155      6.000000
  0.014289 -0.014289 -0.071444     24.000000
  0.028578 -0.028578 -0.085733     24.000000
  0.042866 -0.042866 -0.100021     24.000000
  0.057155 -0.057155 -0.114310     12.000000
  0.000000  0.000000 -0.085733      6.000000
  0.014289 -0.014289 -0.100021     24.000000
  0.028578 -0.028578 -0.114310     12.000000
  0.000000  0.000000 -0.114310      3.000000
  0.028578  0.000000 -0.057155     24.000000
  0.042866 -0.014289 -0.071444     48.000000
  0.057155 -0.028578 -0.085733     24.000000
  0.028578  0.000000 -0.085733     24.000000
  0.042866 -0.014289 -0.100021     48.000000
  0.057155 -0.028578 -0.114310     24.000000
  0.028578  0.000000 -0.114310     12.000000
  0.057155  0.000000 -0.114310      6.000000
 


--------------------------------------------------------------------------------------------------------




 Dimension of arrays:
   k-points           NKPTS =     29   k-points in BZ     NKDIM =     29   number of bands    NBANDS=     20
   number of dos      NEDOS =    301   number of ions     NIONS =      4
   non local maximal  LDIM  =      5   non local SUM 2l+1 LMDIM =     13
   total plane-waves  NPLWV = 110592
   max r-space proj   IRMAX =      1   max aug-charges    IRDMAX=  36864
   dimension x,y,z NGX =    48 NGY =   48 NGZ =   48
   dimension x,y,z NGXF=    96 NGYF=   96 NGZF=   96
   support grid    NGXF=    96 NGYF=   96 NGZF=   96
   ions per type =               1   2   1
   NGX,Y,Z   is equivalent  to a cutoff of  12.90, 12.90, 12.90 a.u.
   NGXF,Y,Z  is equivalent  to a cutoff of  25.80, 25.80, 25.80 a.u.

 SYSTEM =  unknown system                          
 POSCAR =  Cs Sb K                                 

 Startparameter for this run:
   NWRITE =      2    write-flag & timer
   PREC   = acc       normal or accurate (medium, high low for compatibility)
   ISTART =      0    job   : 0-new  1-cont  2-samecut
   ICHARG =      2    charge: 1-file 2-atom 10-const
   ISPIN  =      1    spin polarized calculation?
   LNONCOLLINEAR =      F non collinear calculations
   LSORBIT =      F    spin-orbit coupling
   INIWAV =      1    electr: 0-lowe 1-rand  2-diag
   LASPH  =      F    aspherical Exc in radial PAW
   METAGGA=      F    non-selfconsistent MetaGGA calc.

 Electronic Relaxation 1
   ENCUT  =  520.0 eV  38.22 Ry    6.18 a.u.  11.50 11.50 11.50*2*pi/ulx,y,z
   ENINI  =  520.0     initial cutoff
   ENAUG  =  427.9 eV  augmentation charge cutoff
   NELM   =     60;   NELMIN=  5; NELMDL= -5     # of ELM steps 
   EDIFF  = 0.1E-04   stopping-criterion for ELM
   LREAL  =      F    real-space projection
   NLSPLINE    = F    spline interpolate recip. space projectors
   LCOMPAT=      F    compatible to vasp.4.4
   GGA_COMPAT  = T    GGA compatible to vasp.4.4-vasp.4.6
   LMAXPAW     = -100 max onsite density
   LMAXMIX     =    2 max onsite mixed and CHGCAR
   VOSKOWN=      0    Vosko Wilk Nusair interpolation
   ROPT   =    0.00000   0.00000   0.00000
 Ionic relaxation
   EDIFFG = -.1E-02   stopping-criterion for IOM
   NSW    =    100    number of steps for IOM
   NBLOCK =      1;   KBLOCK =    100    inner block; outer block 
   IBRION =      2    ionic relax: 0-MD 1-quasi-New 2-CG
   NFREE  =      1    steps in history (QN), initial steepest desc. (CG)
   ISIF   =      3    stress and relaxation
   IWAVPR =     11    prediction:  0-non 1-charg 2-wave 3-comb
   ISYM   =      2    0-nonsym 1-usesym 2-fastsym
   LCORR  =      T    Harris-Foulkes like correction to forces

   POTIM  = 0.5000    time-step for ionic-motion
   TEIN   =    0.0    initial temperature
   TEBEG  =    0.0;   TEEND  =   0.0 temperature during run
   SMASS  =  -3.00    Nose mass-parameter (am)
   estimated Nose-frequenzy (Omega)   =  0.10E-29 period in steps =****** mass=  -0.874E-27a.u.
   SCALEE = 1.0000    scale energy and forces
   NPACO  =    256;   APACO  = 16.0  distance and # of slots for P.C.
   PSTRESS=    0.0 pullay stress

  Mass of Ions in am
   POMASS = 132.90 39.10121.75
  Ionic Valenz
   ZVAL   =   9.00  9.00  5.00
  Atomic Wigner-Seitz radii
   RWIGS  =  -1.00 -1.00 -1.00
  virtual crystal weights 
   VCA    =   1.00  1.00  1.00
   NELECT =      32.0000    total number of electrons
   NUPDOWN=      -1.0000    fix difference up-down

 DOS related values:
   EMIN   =  10.00;   EMAX   =-10.00  energy-range for DOS
   EFERMI =   0.00
   ISMEAR =     0;   SIGMA  =   0.05  broadening in eV -4-tet -1-fermi 0-gaus

 Electronic relaxation 2 (details)
   IALGO  =     38    algorithm
   LDIAG  =      T    sub-space diagonalisation (order eigenvalues)
   LSUBROT=      F    optimize rotation matrix (better conditioning)
   TURBO    =      0    0=normal 1=particle mesh
   IRESTART =      0    0=no restart 2=restart with 2 vectors
   NREBOOT  =      0    no. of reboots
   NMIN     =      0    reboot dimension
   EREF     =   0.00    reference energy to select bands
   IMIX   =      4    mixing-type and parameters
     AMIX     =   0.40;   BMIX     =  1.00
     AMIX_MAG =   1.60;   BMIX_MAG =  1.00
     AMIN     =   0.10
     WC   =   100.;   INIMIX=   1;  MIXPRE=   1;  MAXMIX= -45

 Intra band minimization:
   WEIMIN = 0.0010     energy-eigenvalue tresh-hold
   EBREAK =  0.13E-06  absolut break condition
   DEPER  =   0.30     relativ break condition  

   TIME   =   0.40     timestep for ELM

  volume/ion in A,a.u.               =      41.84       282.37
  Fermi-wavevector in a.u.,A,eV,Ry     =   0.943111  1.782221 12.101817  0.889458
  Thomas-Fermi vector in A             =   2.070786
 
 Write flags
   LWAVE        =      F    write WAVECAR
   LDOWNSAMPLE  =      F    k-point downsampling of WAVECAR
   LCHARG       =      F    write CHGCAR
   LVTOT        =      F    write LOCPOT, total local potential
   LVHAR        =      F    write LOCPOT, Hartree potential only
   LELF         =      F    write electronic localiz. function (ELF)
   LORBIT       =      0    0 simple, 1 ext, 2 COOP (PROOUT), +10 PAW based schemes


 Dipole corrections
   LMONO  =      F    monopole corrections only (constant potential shift)
   LDIPOL =      F    correct potential (dipole corrections)
   IDIPOL =      0    1-x, 2-y, 3-z, 4-all directions 
   EPSILON=  1.0000000 bulk dielectric constant

 Exchange correlation treatment:
   GGA     =    PE    GGA type
   LEXCH   =     8    internal setting for exchange type
   VOSKOWN=      0    Vosko Wilk Nusair interpolation
   LHFCALC =     F    Hartree Fock is set to
   LHFONE  =     F    Hartree Fock one center treatment
   AEXX    =    0.0000 exact exchange contribution

 Linear response parameters
   LEPSILON=     F    determine dielectric tensor
   LRPA    =     F    only Hartree local field effects (RPA)
   LNABLA  =     F    use nabla operator in PAW spheres
   LVEL    =     F    velocity operator in full k-point grid
   LINTERFAST=   F  fast interpolation
   KINTER  =     0    interpolate to denser k-point grid
   CSHIFT  =0.1000    complex shift for real part using Kramers Kronig
   OMEGAMAX=  -1.0    maximum frequency
   DEG_THRESHOLD= 0.2000000E-02 threshold for treating states as degnerate
   RTIME   =   -0.100 relaxation time in fs
  (WPLASMAI=    0.000 imaginary part of plasma frequency in eV, 0.658/RTIME)
   DFIELD  = 0.0000000 0.0000000 0.0000000 field for delta impulse in time
 
 Orbital magnetization related:
   ORBITALMAG=     F  switch on orbital magnetization
   LCHIMAG   =     F  perturbation theory with respect to B field
   DQ        =  0.001000  dq finite difference perturbation B field
   LLRAUG    =     F  two centre corrections for induced B field



--------------------------------------------------------------------------------------------------------


 conjugate gradient relaxation of ions
 charge density and potential will be updated during run
 non-spin polarized calculation
 Variant of blocked Davidson
 Davidson routine will perform the subspace rotation
 perform sub-space diagonalisation
    after iterative eigenvector-optimisation
 modified Broyden-mixing scheme, WC =      100.0
 initial mixing is a Kerker type mixing with AMIX =  0.4000 and BMIX =      1.0000
 Hartree-type preconditioning will be used
 using additional bands            4
 reciprocal scheme for non local part
 use partial core corrections
 calculate Harris-corrections to forces 
   (improved forces if not selfconsistent)
 use gradient corrections 
 use of overlap-Matrix (Vanderbilt PP)
 Gauss-broadening in eV      SIGMA  =   0.05


--------------------------------------------------------------------------------------------------------


  energy-cutoff  :      520.00
  volume of cell :      167.37
      direct lattice vectors                 reciprocal lattice vectors
     4.374066000 -4.374066000  0.000000000     0.114310118 -0.114310118 -0.114310118
    -4.374066000  0.000000000 -4.374066000     0.000000000  0.000000000 -0.228620236
     4.374066000  4.374066000  0.000000000     0.114310118  0.114310118 -0.114310118

  length of vectors
     6.185863460  6.185863460  6.185863460     0.197990932  0.228620236  0.197990932


 
 k-points in units of 2pi/SCALE and weight: KPOINTS                                 
   0.00000000  0.00000000  0.00000000       0.002
   0.01428876 -0.01428876 -0.01428876       0.016
   0.02857753 -0.02857753 -0.02857753       0.016
   0.04286629 -0.04286629 -0.04286629       0.016
   0.05715506 -0.05715506 -0.05715506       0.008
   0.00000000  0.00000000 -0.02857753       0.012
   0.01428876 -0.01428876 -0.04286629       0.047
   0.02857753 -0.02857753 -0.05715506       0.047
   0.04286629 -0.04286629 -0.07144382       0.047
   0.05715506 -0.05715506 -0.08573259       0.047
  -0.04286629  0.04286629  0.01428876       0.047
  -0.02857753  0.02857753  0.00000000       0.023
   0.00000000  0.00000000 -0.05715506       0.012
   0.01428876 -0.01428876 -0.07144382       0.047
   0.02857753 -0.02857753 -0.08573259       0.047
   0.04286629 -0.04286629 -0.10002135       0.047
   0.05715506 -0.05715506 -0.11431012       0.023
   0.00000000  0.00000000 -0.08573259       0.012
   0.01428876 -0.01428876 -0.10002135       0.047
   0.02857753 -0.02857753 -0.11431012       0.023
   0.00000000  0.00000000 -0.11431012       0.006
   0.02857753  0.00000000 -0.05715506       0.047
   0.04286629 -0.01428876 -0.07144382       0.094
   0.05715506 -0.02857753 -0.08573259       0.047
   0.02857753  0.00000000 -0.08573259       0.047
   0.04286629 -0.01428876 -0.10002135       0.094
   0.05715506 -0.02857753 -0.11431012       0.047
   0.02857753  0.00000000 -0.11431012       0.023
   0.05715506  0.00000000 -0.11431012       0.012
 
 k-points in reciprocal lattice and weights: KPOINTS                                 
   0.00000000  0.00000000  0.00000000       0.002
   0.12500000  0.00000000  0.00000000       0.016
   0.25000000  0.00000000  0.00000000       0.016
   0.37500000  0.00000000  0.00000000       0.016
   0.50000000  0.00000000  0.00000000       0.008
   0.00000000  0.12500000  0.00000000       0.012
   0.12500000  0.12500000  0.00000000       0.047
   0.25000000  0.12500000  0.00000000       0.047
   0.37500000  0.12500000  0.00000000       0.047
   0.50000000  0.12500000  0.00000000       0.047
  -0.37500000  0.12500000  0.00000000       0.047
  -0.25000000  0.12500000  0.00000000       0.023
   0.00000000  0.25000000  0.00000000       0.012
   0.12500000  0.25000000  0.00000000       0.047
   0.25000000  0.25000000  0.00000000       0.047
   0.37500000  0.25000000  0.00000000       0.047
   0.50000000  0.25000000  0.00000000       0.023
   0.00000000  0.37500000  0.00000000       0.012
   0.12500000  0.37500000  0.00000000       0.047
   0.25000000  0.37500000  0.00000000       0.023
   0.00000000  0.50000000  0.00000000       0.006
   0.12500000  0.12500000  0.12500000       0.047
   0.25000000  0.12500000  0.12500000       0.094
   0.37500000  0.12500000  0.12500000       0.047
   0.12500000  0.25000000  0.12500000       0.047
   0.25000000  0.25000000  0.12500000       0.094
   0.37500000  0.25000000  0.12500000       0.047
   0.12500000  0.37500000  0.12500000       0.023
   0.25000000  0.25000000  0.25000000       0.012
 
 position of ions in fractional coordinates (direct lattice) 
   0.50000046  0.00000000  0.50000046
   0.74999897  0.49999931  0.24999966
   0.24999966  0.49999931  0.74999897
   0.00000000  0.00000000  0.00000000
 
 position of ions in cartesian coordinates  (Angst):
   4.37407000  0.00000000  0.00000000
   2.18703000 -2.18703000 -2.18703000
   2.18703000  2.18703000 -2.18703000
   0.00000000  0.00000000  0.00000000
 


--------------------------------------------------------------------------------------------------------


 k-point  1 :   0.0000 0.0000 0.0000  plane waves:    4573
 k-point  2 :   0.1250 0.0000 0.0000  plane waves:    4525
 k-point  3 :   0.2500 0.0000 0.0000  plane waves:    4513
 k-point  4 :   0.3750 0.0000 0.0000  plane waves:    4507
 k-point  5 :   0.5000 0.0000 0.0000  plane waves:    4476
 k-point  6 :   0.0000 0.1250 0.0000  plane waves:    4517
 k-point  7 :   0.1250 0.1250 0.0000  plane waves:    4523
 k-point  8 :   0.2500 0.1250 0.0000  plane waves:    4538
 k-point  9 :   0.3750 0.1250 0.0000  plane waves:    4494
 k-point 10 :   0.5000 0.1250 0.0000  plane waves:    4501
 k-point 11 :  -0.3750 0.1250 0.0000  plane waves:    4522
 k-point 12 :  -0.2500 0.1250 0.0000  plane waves:    4529
 k-point 13 :   0.0000 0.2500 0.0000  plane waves:    4552
 k-point 14 :   0.1250 0.2500 0.0000  plane waves:    4517
 k-point 15 :   0.2500 0.2500 0.0000  plane waves:    4491
 k-point 16 :   0.3750 0.2500 0.0000  plane waves:    4501
 k-point 17 :   0.5000 0.2500 0.0000  plane waves:    4514
 k-point 18 :   0.0000 0.3750 0.0000  plane waves:    4512
 k-point 19 :   0.1250 0.3750 0.0000  plane waves:    4505
 k-point 20 :   0.2500 0.3750 0.0000  plane waves:    4506
 k-point 21 :   0.0000 0.5000 0.0000  plane waves:    4456
 k-point 22 :   0.1250 0.1250 0.1250  plane waves:    4522
 k-point 23 :   0.2500 0.1250 0.1250  plane waves:    4509
 k-point 24 :   0.3750 0.1250 0.1250  plane waves:    4486
 k-point 25 :   0.1250 0.2500 0.1250  plane waves:    4484
 k-point 26 :   0.2500 0.2500 0.1250  plane waves:    4496
 k-point 27 :   0.3750 0.2500 0.1250  plane waves:    4510
 k-point 28 :   0.1250 0.3750 0.1250  plane waves:    4504
 k-point 29 :   0.2500 0.2500 0.2500  plane waves:    4488

 maximum and minimum number of plane-waves per node :       662      620

 maximum number of plane-waves:      4573
 maximum index in each direction: 
   IXMAX=   11   IYMAX=   11   IZMAX=   11
   IXMIN=  -11   IYMIN=  -11   IZMIN=  -11


 parallel 3D FFT for wavefunctions:
    minimum data exchange during FFTs selected (reduces bandwidth)
 parallel 3D FFT for charge:
    minimum data exchange during FFTs selected (reduces bandwidth)


 total amount of memory used by VASP MPI-rank0    56208. kBytes
=======================================================================

   base      :      30000. kBytes
   nonl-proj :       6032. kBytes
   fftplans  :       4867. kBytes
   grid      :       9037. kBytes
   one-center:          8. kBytes
   wavefun   :       6264. kBytes
 
     INWAV:  cpu time    0.0000: real time    0.0000
 Broyden mixing: mesh for mixing (old mesh)
   NGX = 23   NGY = 23   NGZ = 23
  (NGX  = 96   NGY  = 96   NGZ  = 96)
  gives a total of  12167 points

 initial charge density was supplied:
 charge density of overlapping atoms calculated
 number of electron      32.0000000 magnetization 
 keeping initial charge density in first step


--------------------------------------------------------------------------------------------------------


 Maximum index for augmentation-charges         5442 (set IRDMAX)


--------------------------------------------------------------------------------------------------------


 First call to EWALD:  gamma=   0.322
 Maximum number of real-space cells 3x 3x 3
 Maximum number of reciprocal cells 3x 3x 3

    FEWALD:  cpu time    0.0015: real time    0.0015


--------------------------------------- Iteration      1(   1)  ---------------------------------------


    POTLOK:  cpu time    0.0805: real time    0.0845
    SETDIJ:  cpu time    0.0087: real time    0.0087
     EDDAV:  cpu time    0.3778: real time    0.3781
       DOS:  cpu time    0.0006: real time    0.0006
    --------------------------------------------
      LOOP:  cpu time    0.4676: real time    0.4719

 eigenvalue-minimisations  :  1160
 total energy-change (2. order) : 0.2316642E+03  (-0.1336603E+04)
 number of electron      32.0000000 magnetization 
 augmentation part       32.0000000 magnetization 

 Free energy of the ion-electron system (eV)
  ---------------------------------------------------
  alpha Z        PSCENC =        88.62988485
  Ewald energy   TEWEN  =     -1569.93787712
  -Hartree energ DENC   =      -540.40076287
  -exchange      EXHF   =         0.00000000
  -V(xc)+E(xc)   XCENC  =        35.20911588
  PAW double counting   =      1776.42413506    -1705.39518631
  entropy T*S    EENTRO =        -0.00280476
  eigenvalues    EBANDS =      -108.50586484
  atomic energy  EATOM  =      2255.64356714
  Solvation  Ediel_sol  =         0.00000000
  ---------------------------------------------------
  free energy    TOTEN  =       231.66420703 eV

  energy without entropy =      231.66701179  energy(sigma->0) =      231.66560941


--------------------------------------------------------------------------------------------------------




--------------------------------------- Iteration      1(   2)  ---------------------------------------


     EDDAV:  cpu time    0.4088: real time    0.4107
       DOS:  cpu time    0.0002: real time    0.0002
    --------------------------------------------
      LOOP:  cpu time    0.4091: real time    0.4109

 eigenvalue-minimisations  :  1468
 total energy-change (2. order) :-0.2218534E+03  (-0.2154588E+03)
 number of electron      32.0000000 magnetization 
 augmentation part       32.0000000 magnetization 

 Free energy of the ion-electron system (eV)
  ---------------------------------------------------
  alpha Z        PSCENC =        88.62988485
  Ewald energy   TEWEN  =     -1569.93787712
  -Hartree energ DENC   =      -540.40076287
  -exchange      EXHF   =         0.00000000
  -V(xc)+E(xc)   XCENC  =        35.20911588
  PAW double counting   =      1776.42413506    -1705.39518631
  entropy T*S    EENTRO =        -0.00000000
  eigenvalues    EBANDS =      -330.36204047
  atomic energy  EATOM  =      2255.64356714
  Solvation  Ediel_sol  =         0.00000000
  ---------------------------------------------------
  free energy    TOTEN  =         9.81083615 eV

  energy without entropy =        9.81083615  energy(sigma->0) =        9.81083615


--------------------------------------------------------------------------------------------------------




--------------------------------------- Iteration      1(   3)  ---------------------------------------


     EDDAV:  cpu time    0.4860: real time    0.4865
       DOS:  cpu time    0.0003: real time    0.0003
    --------------------------------------------
      LOOP:  cpu time    0.4862: real time    0.4867

 eigenvalue-minimisations  :  1828
 total energy-change (2. order) :-0.1881130E+02  (-0.1873978E+02)
 number of electron      32.0000000 magnetization 
 augmentation part       32.0000000 magnetization 

 Free energy of the ion-electron system (eV)
  ---------------------------------------------------
  alpha Z        PSCENC =        88.62988485
  Ewald energy   TEWEN  =     -1569.93787712
  -Hartree energ DENC   =      -540.40076287
  -exchange      EXHF   =         0.00000000
  -V(xc)+E(xc)   XCENC  =        35.20911588
  PAW double counting   =      1776.42413506    -1705.39518631
  entropy T*S    EENTRO =        -0.00000000
  eigenvalues    EBANDS =      -349.17334040
  atomic energy  EATOM  =      2255.64356714
  Solvation  Ediel_sol  =         0.00000000
  ---------------------------------------------------
  free energy    TOTEN  =        -9.00046377 eV

  energy without entropy =       -9.00046377  energy(sigma->0) =       -9.00046377


--------------------------------------------------------------------------------------------------------




--------------------------------------- Iteration      1(   4)  ---------------------------------------


     EDDAV:  cpu time    0.4411: real time    0.4422
       DOS:  cpu time    0.0002: real time    0.0002
    --------------------------------------------
      LOOP:  cpu time    0.4414: real time    0.4424

 eigenvalue-minimisations  :  1652
 total energy-change (2. order) :-0.6676711E+00  (-0.6642531E+00)
 number of electron      32.0000000 magnetization 
 augmentation part       32.0000000 magnetization 

 Free energy of the ion-electron system (eV)
  ---------------------------------------------------
  alpha Z        PSCENC =        88.62988485
  Ewald energy   TEWEN  =     -1569.93787712
  -Hartree energ DENC   =      -540.40076287
  -exchange      EXHF   =         0.00000000
  -V(xc)+E(xc)   XCENC  =        35.20911588
  PAW double counting   =      1776.42413506    -1705.39518631
  entropy T*S    EENTRO =        -0.00000000
  eigenvalues    EBANDS =      -349.84101148
  atomic energy  EATOM  =      2255.64356714
  Solvation  Ediel_sol  =         0.00000000
  ---------------------------------------------------
  free energy    TOTEN  =        -9.66813486 eV

  energy without entropy =       -9.66813486  energy(sigma->0) =       -9.66813486


--------------------------------------------------------------------------------------------------------




--------------------------------------- Iteration      1(   5)  ---------------------------------------


     EDDAV:  cpu time    0.4376: real time    0.4380
       DOS:  cpu time    0.0002: real time    0.0002
    CHARGE:  cpu time    0.0526: real time    0.0526
    MIXING:  cpu time    0.0046: real time    0.0046
    --------------------------------------------
      LOOP:  cpu time    0.4952: real time    0.4955

 eigenvalue-minimisations  :  1632
 total energy-change (2. order) :-0.2635841E-01  (-0.2635418E-01)
 number of electron      32.0000001 magnetization 
 augmentation part        0.1108260 magnetization 

 Broyden mixing:
  rms(total) = 0.47445E+00    rms(broyden)= 0.47445E+00
  rms(prec ) = 0.11570E+01
  weight for this iteration     100.00

 Free energy of the ion-electron system (eV)
  ---------------------------------------------------
  alpha Z        PSCENC =        88.62988485
  Ewald energy   TEWEN  =     -1569.93787712
  -Hartree energ DENC   =      -540.40076287
  -exchange      EXHF   =         0.00000000
  -V(xc)+E(xc)   XCENC  =        35.20911588
  PAW double counting   =      1776.42413506    -1705.39518631
  entropy T*S    EENTRO =        -0.00000000
  eigenvalues    EBANDS =      -349.86736989
  atomic energy  EATOM  =      2255.64356714
  Solvation  Ediel_sol  =         0.00000000
  ---------------------------------------------------
  free energy    TOTEN  =        -9.69449326 eV

  energy without entropy =       -9.69449326  energy(sigma->0) =       -9.69449326


--------------------------------------------------------------------------------------------------------




--------------------------------------- Iteration      1(   6)  ---------------------------------------


    POTLOK:  cpu time    0.0792: real time    0.0797
    SETDIJ:  cpu time    0.0104: real time    0.0104
     EDDAV:  cpu time    0.3855: real time    0.3855
       DOS:  cpu time    0.0003: real time    0.0003
    CHARGE:  cpu time    0.0498: real time    0.0498
    MIXING:  cpu time    0.0054: real time    0.0054
    --------------------------------------------
      LOOP:  cpu time    0.5306: real time    0.5312

 eigenvalue-minimisations  :  1312
 total energy-change (2. order) : 0.9236069E+00  (-0.1710826E+00)
 number of electron      32.0000001 magnetization 
 augmentation part        0.1390997 magnetization 

 Broyden mixing:
  rms(total) = 0.37662E+00    rms(broyden)= 0.37662E+00
  rms(prec ) = 0.58920E+00
  weight for this iteration     100.00

 eigenvalues of (default mixing * dielectric matrix)
  average eigenvalue GAMMA=   1.5790
  1.5790

 Free energy of the ion-electron system (eV)
  ---------------------------------------------------
  alpha Z        PSCENC =        88.62988485
  Ewald energy   TEWEN  =     -1569.93787712
  -Hartree energ DENC   =      -533.31303912
  -exchange      EXHF   =         0.00000000
  -V(xc)+E(xc)   XCENC  =        35.19521309
  PAW double counting   =      1801.34333122    -1731.36578665
  entropy T*S    EENTRO =        -0.00000000
  eigenvalues    EBANDS =      -354.96617979
  atomic energy  EATOM  =      2255.64356714
  Solvation  Ediel_sol  =         0.00000000
  ---------------------------------------------------
  free energy    TOTEN  =        -8.77088639 eV

  energy without entropy =       -8.77088639  energy(sigma->0) =       -8.77088639


--------------------------------------------------------------------------------------------------------




--------------------------------------- Iteration      1(   7)  ---------------------------------------


    POTLOK:  cpu time    0.0795: real time    0.0800
    SETDIJ:  cpu time    0.0068: real time    0.0068
     EDDAV:  cpu time    0.4749: real time    0.4752
       DOS:  cpu time    0.0003: real time    0.0003
    CHARGE:  cpu time    0.0499: real time    0.0499
    MIXING:  cpu time    0.0045: real time    0.0045
    --------------------------------------------
      LOOP:  cpu time    0.6159: real time    0.6166

 eigenvalue-minimisations  :  1660
 total energy-change (2. order) : 0.1105698E+00  (-0.1114786E+00)
 number of electron      32.0000001 magnetization 
 augmentation part        0.1295067 magnetization 

 Broyden mixing:
  rms(total) = 0.22544E+00    rms(broyden)= 0.22544E+00
  rms(prec ) = 0.27228E+00
  weight for this iteration     100.00

 eigenvalues of (default mixing * dielectric matrix)
  average eigenvalue GAMMA=   2.0520
  2.0520  2.0520

 Free energy of the ion-electron system (eV)
  ---------------------------------------------------
  alpha Z        PSCENC =        88.62988485
  Ewald energy   TEWEN  =     -1569.93787712
  -Hartree energ DENC   =      -527.91164146
  -exchange      EXHF   =         0.00000000
  -V(xc)+E(xc)   XCENC  =        35.20194251
  PAW double counting   =      1851.51109826    -1782.35119826
  entropy T*S    EENTRO =        -0.00000000
  eigenvalues    EBANDS =      -359.44609248
  atomic energy  EATOM  =      2255.64356714
  Solvation  Ediel_sol  =         0.00000000
  ---------------------------------------------------
  free energy    TOTEN  =        -8.66031656 eV

  energy without entropy =       -8.66031656  energy(sigma->0) =       -8.66031656


--------------------------------------------------------------------------------------------------------




--------------------------------------- Iteration      1(   8)  ---------------------------------------


    POTLOK:  cpu time    0.0809: real time    0.0818
    SETDIJ:  cpu time    0.0118: real time    0.0118
     EDDAV:  cpu time    0.3900: real time    0.3901
       DOS:  cpu time    0.0003: real time    0.0003
    CHARGE:  cpu time    0.0487: real time    0.0487
    MIXING:  cpu time    0.0040: real time    0.0040
    --------------------------------------------
      LOOP:  cpu time    0.5356: real time    0.5366

 eigenvalue-minimisations  :  1320
 total energy-change (2. order) :-0.1924963E-01  (-0.2709651E-01)
 number of electron      32.0000001 magnetization 
 augmentation part        0.0924093 magnetization 

 Broyden mixing:
  rms(total) = 0.57966E-01    rms(broyden)= 0.57966E-01
  rms(prec ) = 0.14724E+00
  weight for this iteration     100.00

 eigenvalues of (default mixing * dielectric matrix)
  average eigenvalue GAMMA=   1.6287
  1.3004  1.3004  2.2851

 Free energy of the ion-electron system (eV)
  ---------------------------------------------------
  alpha Z        PSCENC =        88.62988485
  Ewald energy   TEWEN  =     -1569.93787712
  -Hartree energ DENC   =      -528.09086089
  -exchange      EXHF   =         0.00000000
  -V(xc)+E(xc)   XCENC  =        35.29227492
  PAW double counting   =      1908.09647300    -1838.68772878
  entropy T*S    EENTRO =        -0.00000000
  eigenvalues    EBANDS =      -359.62529931
  atomic energy  EATOM  =      2255.64356714
  Solvation  Ediel_sol  =         0.00000000
  ---------------------------------------------------
  free energy    TOTEN  =        -8.67956619 eV

  energy without entropy =       -8.67956619  energy(sigma->0) =       -8.67956619


--------------------------------------------------------------------------------------------------------




--------------------------------------- Iteration      1(   9)  ---------------------------------------


    POTLOK:  cpu time    0.0794: real time    0.0798
    SETDIJ:  cpu time    0.0067: real time    0.0067
     EDDAV:  cpu time    0.3833: real time    0.3835
       DOS:  cpu time    0.0003: real time    0.0003
    CHARGE:  cpu time    0.0486: real time    0.0486
    MIXING:  cpu time    0.0039: real time    0.0039
    --------------------------------------------
      LOOP:  cpu time    0.5222: real time    0.5228

 eigenvalue-minimisations  :  1364
 total energy-change (2. order) : 0.1658439E-01  (-0.8941381E-02)
 number of electron      32.0000001 magnetization 
 augmentation part        0.0985151 magnetization 

 Broyden mixing:
  rms(total) = 0.23380E-01    rms(broyden)= 0.23380E-01
  rms(prec ) = 0.29900E-01
  weight for this iteration     100.00

 eigenvalues of (default mixing * dielectric matrix)
  average eigenvalue GAMMA=   1.2815
  2.2543  1.3243  1.3243  0.2233

 Free energy of the ion-electron system (eV)
  ---------------------------------------------------
  alpha Z        PSCENC =        88.62988485
  Ewald energy   TEWEN  =     -1569.93787712
  -Hartree energ DENC   =      -527.07250631
  -exchange      EXHF   =         0.00000000
  -V(xc)+E(xc)   XCENC  =        35.30246371
  PAW double counting   =      1908.18845712    -1838.91518438
  entropy T*S    EENTRO =        -0.00000000
  eigenvalues    EBANDS =      -360.50178681
  atomic energy  EATOM  =      2255.64356714
  Solvation  Ediel_sol  =         0.00000000
  ---------------------------------------------------
  free energy    TOTEN  =        -8.66298180 eV

  energy without entropy =       -8.66298180  energy(sigma->0) =       -8.66298180


--------------------------------------------------------------------------------------------------------




--------------------------------------- Iteration      1(  10)  ---------------------------------------


    POTLOK:  cpu time    0.0792: real time    0.0796
    SETDIJ:  cpu time    0.0073: real time    0.0073
     EDDAV:  cpu time    0.4417: real time    0.4419
       DOS:  cpu time    0.0003: real time    0.0003
    CHARGE:  cpu time    0.0486: real time    0.0486
    MIXING:  cpu time    0.0040: real time    0.0040
    --------------------------------------------
      LOOP:  cpu time    0.5812: real time    0.5818

 eigenvalue-minimisations  :  1596
 total energy-change (2. order) :-0.1132382E-02  (-0.7967900E-03)
 number of electron      32.0000001 magnetization 
 augmentation part        0.0925006 magnetization 

 Broyden mixing:
  rms(total) = 0.68389E-02    rms(broyden)= 0.68389E-02
  rms(prec ) = 0.12302E-01
  weight for this iteration     100.00

 eigenvalues of (default mixing * dielectric matrix)
  average eigenvalue GAMMA=   1.7263
  2.7988  2.7988  1.1274  1.1274  0.7790

 Free energy of the ion-electron system (eV)
  ---------------------------------------------------
  alpha Z        PSCENC =        88.62988485
  Ewald energy   TEWEN  =     -1569.93787712
  -Hartree energ DENC   =      -527.32774203
  -exchange      EXHF   =         0.00000000
  -V(xc)+E(xc)   XCENC  =        35.31815207
  PAW double counting   =      1899.64652648    -1830.24456987
  entropy T*S    EENTRO =        -0.00000000
  eigenvalues    EBANDS =      -360.39205571
  atomic energy  EATOM  =      2255.64356714
  Solvation  Ediel_sol  =         0.00000000
  ---------------------------------------------------
  free energy    TOTEN  =        -8.66411418 eV

  energy without entropy =       -8.66411418  energy(sigma->0) =       -8.66411418


--------------------------------------------------------------------------------------------------------




--------------------------------------- Iteration      1(  11)  ---------------------------------------


    POTLOK:  cpu time    0.0794: real time    0.0799
    SETDIJ:  cpu time    0.0068: real time    0.0068
     EDDAV:  cpu time    0.3915: real time    0.3916
       DOS:  cpu time    0.0003: real time    0.0003
    CHARGE:  cpu time    0.0487: real time    0.0487
    MIXING:  cpu time    0.0041: real time    0.0041
    --------------------------------------------
      LOOP:  cpu time    0.5309: real time    0.5314

 eigenvalue-minimisations  :  1420
 total energy-change (2. order) :-0.1360702E-03  (-0.3190782E-04)
 number of electron      32.0000001 magnetization 
 augmentation part        0.0927522 magnetization 

 Broyden mixing:
  rms(total) = 0.73932E-02    rms(broyden)= 0.73932E-02
  rms(prec ) = 0.79520E-02
  weight for this iteration     100.00

 eigenvalues of (default mixing * dielectric matrix)
  average eigenvalue GAMMA=   1.6194
  2.8511  2.3730  1.2489  1.2489  0.9973  0.9973

 Free energy of the ion-electron system (eV)
  ---------------------------------------------------
  alpha Z        PSCENC =        88.62988485
  Ewald energy   TEWEN  =     -1569.93787712
  -Hartree energ DENC   =      -527.46958853
  -exchange      EXHF   =         0.00000000
  -V(xc)+E(xc)   XCENC  =        35.33348158
  PAW double counting   =      1899.41076461    -1829.90807212
  entropy T*S    EENTRO =        -0.00000000
  eigenvalues    EBANDS =      -360.36641067
  atomic energy  EATOM  =      2255.64356714
  Solvation  Ediel_sol  =         0.00000000
  ---------------------------------------------------
  free energy    TOTEN  =        -8.66425025 eV

  energy without entropy =       -8.66425025  energy(sigma->0) =       -8.66425025


--------------------------------------------------------------------------------------------------------




--------------------------------------- Iteration      1(  12)  ---------------------------------------


    POTLOK:  cpu time    0.0793: real time    0.0797
    SETDIJ:  cpu time    0.0070: real time    0.0070
     EDDAV:  cpu time    0.3459: real time    0.3460
       DOS:  cpu time    0.0002: real time    0.0002
    --------------------------------------------
      LOOP:  cpu time    0.4324: real time    0.4329

 eigenvalue-minimisations  :  1140
 total energy-change (2. order) : 0.3496697E-05  (-0.3914473E-05)
 number of electron      32.0000001 magnetization 
 augmentation part        0.0927522 magnetization 

 Free energy of the ion-electron system (eV)
  ---------------------------------------------------
  alpha Z        PSCENC =        88.62988485
  Ewald energy   TEWEN  =     -1569.93787712
  -Hartree energ DENC   =      -527.43694028
  -exchange      EXHF   =         0.00000000
  -V(xc)+E(xc)   XCENC  =        35.33301170
  PAW double counting   =      1902.90984507    -1833.41761312
  entropy T*S    EENTRO =        -0.00000000
  eigenvalues    EBANDS =      -360.38812501
  atomic energy  EATOM  =      2255.64356714
  Solvation  Ediel_sol  =         0.00000000
  ---------------------------------------------------
  free energy    TOTEN  =        -8.66424676 eV

  energy without entropy =       -8.66424676  energy(sigma->0) =       -8.66424676


--------------------------------------------------------------------------------------------------------




 average (electrostatic) potential at core
  the test charge radii are     1.1312  1.1045  1.1712
  (the norm of the test charge is              1.0000)
       1 -50.7912       2 -36.3923       3 -36.3923       4 -89.0105
 
 
 
 E-fermi :   2.0780     XC(G=0):  -7.7043     alpha+bet : -7.6212


 k-point     1 :       0.0000    0.0000    0.0000
  band No.  band energies     occupation 
      1     -29.1257      2.00000
      2     -29.1143      2.00000
      3     -21.0636      2.00000
      4     -12.6658      2.00000
      5     -12.6658      2.00000
      6     -12.6658      2.00000
      7     -12.6090      2.00000
      8     -12.6090      2.00000
      9     -12.6090      2.00000
     10      -7.9146      2.00000
     11      -7.9146      2.00000
     12      -7.9146      2.00000
     13      -5.4062      2.00000
     14       1.8086      2.00000
     15       1.8086      2.00000
     16       1.8086      2.00000
     17       2.6719      0.00000
     18       3.9948      0.00000
     19       3.9948      0.00000
     20       4.5053      0.00000

 k-point     2 :       0.1250    0.0000    0.0000
  band No.  band energies     occupation 
      1     -29.1252      2.00000
      2     -29.1147      2.00000
      3     -21.0637      2.00000
      4     -12.6657      2.00000
      5     -12.6640      2.00000
      6     -12.6640      2.00000
      7     -12.6115      2.00000
      8     -12.6115      2.00000
      9     -12.6098      2.00000
     10      -7.9246      2.00000
     11      -7.9133      2.00000
     12      -7.9133      2.00000
     13      -5.3742      2.00000
     14       1.4420      2.00000
     15       1.7386      2.00000
     16       1.7386      2.00000
     17       3.1795      0.00000
     18       4.1967      0.00000
     19       4.1967      0.00000
     20       4.4345      0.00000

 k-point     3 :       0.2500    0.0000    0.0000
  band No.  band energies     occupation 
      1     -29.1239      2.00000
      2     -29.1159      2.00000
      3     -21.0642      2.00000
      4     -12.6631      2.00000
      5     -12.6589      2.00000
      6     -12.6589      2.00000
      7     -12.6183      2.00000
      8     -12.6183      2.00000
      9     -12.6142      2.00000
     10      -7.9461      2.00000
     11      -7.9102      2.00000
     12      -7.9102      2.00000
     13      -5.3018      2.00000
     14       1.0005      2.00000
     15       1.5999      2.00000
     16       1.5999      2.00000
     17       3.8508      0.00000
     18       4.5565      0.00000
     19       4.6965      0.00000
     20       4.7020      0.00000

 k-point     4 :       0.3750    0.0000    0.0000
  band No.  band energies     occupation 
      1     -29.1220      2.00000
      2     -29.1177      2.00000
      3     -21.0646      2.00000
      4     -12.6556      2.00000
      5     -12.6508      2.00000
      6     -12.6508      2.00000
      7     -12.6281      2.00000
      8     -12.6281      2.00000
      9     -12.6238      2.00000
     10      -7.9640      2.00000
     11      -7.9072      2.00000
     12      -7.9072      2.00000
     13      -5.2356      2.00000
     14       0.7166      2.00000
     15       1.4890      2.00000
     16       1.4890      2.00000
     17       4.1956      0.00000
     18       4.8990      0.00000
     19       4.8991      0.00000
     20       5.1909      0.00000

 k-point     5 :       0.5000    0.0000    0.0000
  band No.  band energies     occupation 
      1     -29.1199      2.00000
      2     -29.1198      2.00000
      3     -21.0648      2.00000
      4     -12.6483      2.00000
      5     -12.6431      2.00000
      6     -12.6431      2.00000
      7     -12.6365      2.00000
      8     -12.6365      2.00000
      9     -12.6320      2.00000
     10      -7.9704      2.00000
     11      -7.9059      2.00000
     12      -7.9059      2.00000
     13      -5.2098      2.00000
     14       0.6181      2.00000
     15       1.4487      2.00000
     16       1.4487      2.00000
     17       4.4902      0.00000
     18       5.0184      0.00000
     19       5.0184      0.00000
     20       5.1371      0.00000

 k-point     6 :       0.0000    0.1250    0.0000
  band No.  band energies     occupation 
      1     -29.1251      2.00000
      2     -29.1149      2.00000
      3     -21.0638      2.00000
      4     -12.6693      2.00000
      5     -12.6693      2.00000
      6     -12.6544      2.00000
      7     -12.6201      2.00000
      8     -12.6070      2.00000
      9     -12.6070      2.00000
     10      -7.9276      2.00000
     11      -7.9128      2.00000
     12      -7.9128      2.00000
     13      -5.3660      2.00000
     14       1.3015      2.00000
     15       1.7931      2.00000
     16       1.7931      2.00000
     17       3.1895      0.00000
     18       4.1035      0.00000
     19       4.2487      0.00000
     20       4.4555      0.00000

 k-point     7 :       0.1250    0.1250    0.0000
  band No.  band energies     occupation 
      1     -29.1242      2.00000
      2     -29.1157      2.00000
      3     -21.0641      2.00000
      4     -12.6709      2.00000
      5     -12.6703      2.00000
      6     -12.6432      2.00000
      7     -12.6319      2.00000
      8     -12.6077      2.00000
      9     -12.6071      2.00000
     10      -7.9428      2.00000
     11      -7.9113      2.00000
     12      -7.9103      2.00000
     13      -5.3135      2.00000
     14       1.0127      2.00000
     15       1.6609      2.00000
     16       1.7191      2.00000
     17       3.6869      0.00000
     18       4.1189      0.00000
     19       4.3947      0.00000
     20       4.7957      0.00000

 k-point     8 :       0.2500    0.1250    0.0000
  band No.  band energies     occupation 
      1     -29.1225      2.00000
      2     -29.1172      2.00000
      3     -21.0646      2.00000
      4     -12.6676      2.00000
      5     -12.6666      2.00000
      6     -12.6453      2.00000
      7     -12.6308      2.00000
      8     -12.6131      2.00000
      9     -12.6130      2.00000
     10      -7.9573      2.00000
     11      -7.9108      2.00000
     12      -7.9072      2.00000
     13      -5.2534      2.00000
     14       0.8101      2.00000
     15       1.4806      2.00000
     16       1.5908      2.00000
     17       4.0021      0.00000
     18       4.5638      0.00000
     19       4.8956      0.00000
     20       5.0735      0.00000

 k-point     9 :       0.3750    0.1250    0.0000
  band No.  band energies     occupation 
      1     -29.1206      2.00000
      2     -29.1191      2.00000
      3     -21.0648      2.00000
      4     -12.6645      2.00000
      5     -12.6583      2.00000
      6     -12.6517      2.00000
      7     -12.6243      2.00000
      8     -12.6221      2.00000
      9     -12.6190      2.00000
     10      -7.9639      2.00000
     11      -7.9111      2.00000
     12      -7.9054      2.00000
     13      -5.2191      2.00000
     14       0.7111      2.00000
     15       1.4045      2.00000
     16       1.4892      2.00000
     17       4.3253      0.00000
     18       4.9671      0.00000
     19       5.0242      0.00000
     20       5.0866      0.00000

 k-point    10 :       0.5000    0.1250    0.0000
  band No.  band energies     occupation 
      1     -29.1212      2.00000
      2     -29.1185      2.00000
      3     -21.0648      2.00000
      4     -12.6712      2.00000
      5     -12.6466      2.00000
      6     -12.6440      2.00000
      7     -12.6350      2.00000
      8     -12.6330      2.00000
      9     -12.6094      2.00000
     10      -7.9619      2.00000
     11      -7.9118      2.00000
     12      -7.9059      2.00000
     13      -5.2250      2.00000
     14       0.7304      2.00000
     15       1.4526      2.00000
     16       1.4562      2.00000
     17       4.3344      0.00000
     18       4.8323      0.00000
     19       4.8684      0.00000
     20       5.1511      0.00000

 k-point    11 :      -0.3750    0.1250    0.0000
  band No.  band energies     occupation 
      1     -29.1231      2.00000
      2     -29.1167      2.00000
      3     -21.0644      2.00000
      4     -12.6746      2.00000
      5     -12.6517      2.00000
      6     -12.6451      2.00000
      7     -12.6328      2.00000
      8     -12.6264      2.00000
      9     -12.6043      2.00000
     10      -7.9519      2.00000
     11      -7.9123      2.00000
     12      -7.9084      2.00000
     13      -5.2694      2.00000
     14       0.8749      2.00000
     15       1.4942      2.00000
     16       1.6058      2.00000
     17       4.0189      0.00000
     18       4.4705      0.00000
     19       4.6738      0.00000
     20       4.8970      0.00000

 k-point    12 :      -0.2500    0.1250    0.0000
  band No.  band energies     occupation 
      1     -29.1245      2.00000
      2     -29.1154      2.00000
      3     -21.0640      2.00000
      4     -12.6720      2.00000
      5     -12.6597      2.00000
      6     -12.6555      2.00000
      7     -12.6206      2.00000
      8     -12.6165      2.00000
      9     -12.6051      2.00000
     10      -7.9365      2.00000
     11      -7.9126      2.00000
     12      -7.9115      2.00000
     13      -5.3317      2.00000
     14       1.1415      2.00000
     15       1.6058      2.00000
     16       1.7500      2.00000
     17       3.5762      0.00000
     18       4.3084      0.00000
     19       4.4160      0.00000
     20       4.5696      0.00000

 k-point    13 :       0.0000    0.2500    0.0000
  band No.  band energies     occupation 
      1     -29.1237      2.00000
      2     -29.1161      2.00000
      3     -21.0644      2.00000
      4     -12.6776      2.00000
      5     -12.6776      2.00000
      6     -12.6469      2.00000
      7     -12.6270      2.00000
      8     -12.6022      2.00000
      9     -12.6022      2.00000
     10      -7.9509      2.00000
     11      -7.9086      2.00000
     12      -7.9086      2.00000
     13      -5.2962      2.00000
     14       0.8949      2.00000
     15       1.7623      2.00000
     16       1.7623      2.00000
     17       3.7352      0.00000
     18       3.7417      0.00000
     19       4.4275      0.00000
     20       4.9963      0.00000

 k-point    14 :       0.1250    0.2500    0.0000
  band No.  band energies     occupation 
      1     -29.1226      2.00000
      2     -29.1171      2.00000
      3     -21.0647      2.00000
      4     -12.6796      2.00000
      5     -12.6791      2.00000
      6     -12.6603      2.00000
      7     -12.6129      2.00000
      8     -12.6029      2.00000
      9     -12.6025      2.00000
     10      -7.9577      2.00000
     11      -7.9093      2.00000
     12      -7.9061      2.00000
     13      -5.2652      2.00000
     14       0.8567      2.00000
     15       1.6182      2.00000
     16       1.6991      2.00000
     17       3.6538      0.00000
     18       4.1403      0.00000
     19       4.7842      0.00000
     20       5.2164      0.00000

 k-point    15 :       0.2500    0.2500    0.0000
  band No.  band energies     occupation 
      1     -29.1211      2.00000
      2     -29.1185      2.00000
      3     -21.0650      2.00000
      4     -12.6814      2.00000
      5     -12.6741      2.00000
      6     -12.6638      2.00000
      7     -12.6111      2.00000
      8     -12.6080      2.00000
      9     -12.6021      2.00000
     10      -7.9552      2.00000
     11      -7.9169      2.00000
     12      -7.9043      2.00000
     13      -5.2397      2.00000
     14       0.9063      2.00000
     15       1.3820      2.00000
     16       1.5885      2.00000
     17       3.8745      0.00000
     18       4.6262      0.00000
     19       5.0842      0.00000
     20       5.1088      0.00000

 k-point    16 :       0.3750    0.2500    0.0000
  band No.  band energies     occupation 
      1     -29.1201      2.00000
      2     -29.1195      2.00000
      3     -21.0650      2.00000
      4     -12.6853      2.00000
      5     -12.6635      2.00000
      6     -12.6539      2.00000
      7     -12.6245      2.00000
      8     -12.6179      2.00000
      9     -12.5963      2.00000
     10      -7.9478      2.00000
     11      -7.9257      2.00000
     12      -7.9042      2.00000
     13      -5.2297      2.00000
     14       0.9187      2.00000
     15       1.3092      2.00000
     16       1.4946      2.00000
     17       4.2989      0.00000
     18       4.5657      0.00000
     19       4.9507      0.00000
     20       5.1091      0.00000

 k-point    17 :       0.5000    0.2500    0.0000
  band No.  band energies     occupation 
      1     -29.1217      2.00000
      2     -29.1180      2.00000
      3     -21.0648      2.00000
      4     -12.6834      2.00000
      5     -12.6488      2.00000
      6     -12.6398      2.00000
      7     -12.6392      2.00000
      8     -12.6308      2.00000
      9     -12.5969      2.00000
     10      -7.9501      2.00000
     11      -7.9209      2.00000
     12      -7.9060      2.00000
     13      -5.2401      2.00000
     14       0.8552      2.00000
     15       1.4566      2.00000
     16       1.4597      2.00000
     17       4.3299      0.00000
     18       4.5543      0.00000
     19       4.7638      0.00000
     20       4.8017      0.00000

 k-point    18 :       0.0000    0.3750    0.0000
  band No.  band energies     occupation 
      1     -29.1222      2.00000
      2     -29.1174      2.00000
      3     -21.0649      2.00000
      4     -12.6857      2.00000
      5     -12.6857      2.00000
      6     -12.6735      2.00000
      7     -12.5992      2.00000
      8     -12.5976      2.00000
      9     -12.5976      2.00000
     10      -7.9636      2.00000
     11      -7.9044      2.00000
     12      -7.9044      2.00000
     13      -5.2663      2.00000
     14       0.8978      2.00000
     15       1.7392      2.00000
     16       1.7392      2.00000
     17       3.3296      0.00000
     18       4.0301      0.00000
     19       4.9567      0.00000
     20       5.2423      0.00000

 k-point    19 :       0.1250    0.3750    0.0000
  band No.  band energies     occupation 
      1     -29.1215      2.00000
      2     -29.1181      2.00000
      3     -21.0651      2.00000
      4     -12.6895      2.00000
      5     -12.6851      2.00000
      6     -12.6765      2.00000
      7     -12.6000      2.00000
      8     -12.5989      2.00000
      9     -12.5913      2.00000
     10      -7.9611      2.00000
     11      -7.9085      2.00000
     12      -7.9032      2.00000
     13      -5.2584      2.00000
     14       0.9966      2.00000
     15       1.5714      2.00000
     16       1.6894      2.00000
     17       3.4084      0.00000
     18       4.1035      0.00000
     19       5.2092      0.00000
     20       5.2830      0.00000

 k-point    20 :       0.2500    0.3750    0.0000
  band No.  band energies     occupation 
      1     -29.1206      2.00000
      2     -29.1190      2.00000
      3     -21.0651      2.00000
      4     -12.6915      2.00000
      5     -12.6772      2.00000
      6     -12.6672      2.00000
      7     -12.6102      2.00000
      8     -12.6060      2.00000
      9     -12.5901      2.00000
     10      -7.9486      2.00000
     11      -7.9230      2.00000
     12      -7.9031      2.00000
     13      -5.2442      2.00000
     14       1.1292      2.00000
     15       1.2433      2.00000
     16       1.5893      2.00000
     17       3.7908      0.00000
     18       4.3546      0.00000
     19       5.1530      0.00000
     20       5.3547      0.00000

 k-point    21 :       0.0000    0.5000    0.0000
  band No.  band energies     occupation 
      1     -29.1217      2.00000
      2     -29.1179      2.00000
      3     -21.0652      2.00000
      4     -12.6890      2.00000
      5     -12.6890      2.00000
      6     -12.6845      2.00000
      7     -12.5957      2.00000
      8     -12.5957      2.00000
      9     -12.5876      2.00000
     10      -7.9659      2.00000
     11      -7.9027      2.00000
     12      -7.9027      2.00000
     13      -5.2658      2.00000
     14       1.0090      2.00000
     15       1.7315      2.00000
     16       1.7315      2.00000
     17       3.1771      0.00000
     18       3.9035      0.00000
     19       5.2098      0.00000
     20       5.5402      0.00000

 k-point    22 :       0.1250    0.1250    0.1250
  band No.  band energies     occupation 
      1     -29.1231      2.00000
      2     -29.1167      2.00000
      3     -21.0645      2.00000
      4     -12.6792      2.00000
      5     -12.6654      2.00000
      6     -12.6462      2.00000
      7     -12.6291      2.00000
      8     -12.6146      2.00000
      9     -12.6006      2.00000
     10      -7.9516      2.00000
     11      -7.9121      2.00000
     12      -7.9081      2.00000
     13      -5.2738      2.00000
     14       0.8780      2.00000
     15       1.5683      2.00000
     16       1.6566      2.00000
     17       3.9998      0.00000
     18       4.0207      0.00000
     19       4.7324      0.00000
     20       4.9067      0.00000

 k-point    23 :       0.2500    0.1250    0.1250
  band No.  band energies     occupation 
      1     -29.1216      2.00000
      2     -29.1181      2.00000
      3     -21.0648      2.00000
      4     -12.6824      2.00000
      5     -12.6598      2.00000
      6     -12.6547      2.00000
      7     -12.6263      2.00000
      8     -12.6161      2.00000
      9     -12.6000      2.00000
     10      -7.9542      2.00000
     11      -7.9168      2.00000
     12      -7.9059      2.00000
     13      -5.2395      2.00000
     14       0.8485      2.00000
     15       1.4357      2.00000
     16       1.5246      2.00000
     17       4.1147      0.00000
     18       4.5265      0.00000
     19       4.8824      0.00000
     20       5.1424      0.00000

 k-point    24 :       0.3750    0.1250    0.1250
  band No.  band energies     occupation 
      1     -29.1198      2.00000
      2     -29.1198      2.00000
      3     -21.0650      2.00000
      4     -12.6820      2.00000
      5     -12.6655      2.00000
      6     -12.6439      2.00000
      7     -12.6382      2.00000
      8     -12.6065      2.00000
      9     -12.6049      2.00000
     10      -7.9535      2.00000
     11      -7.9199      2.00000
     12      -7.9050      2.00000
     13      -5.2267      2.00000
     14       0.8588      2.00000
     15       1.3490      2.00000
     16       1.4865      2.00000
     17       4.4109      0.00000
     18       4.4837      0.00000
[...]
      9     -12.6250      2.00000
     10      -7.9771      2.00000
     11      -7.9396      2.00000
     12      -7.9272      2.00000
     13      -5.2573      2.00000
     14       0.8897      2.00000
     15       1.3651      2.00000
     16       1.5716      2.00000
     17       3.8525      0.00000
     18       4.5976      0.00000
     19       5.0635      0.00000
     20       5.0773      0.00000

 k-point    16 :       0.3750    0.2500    0.0000
  band No.  band energies     occupation 
      1     -29.1430      2.00000
      2     -29.1424      2.00000
      3     -21.0881      2.00000
      4     -12.7068      2.00000
      5     -12.6854      2.00000
      6     -12.6760      2.00000
      7     -12.6470      2.00000
      8     -12.6406      2.00000
      9     -12.6192      2.00000
     10      -7.9699      2.00000
     11      -7.9482      2.00000
     12      -7.9271      2.00000
     13      -5.2475      2.00000
     14       0.9021      2.00000
     15       1.2920      2.00000
     16       1.4788      2.00000
     17       4.2755      0.00000
     18       4.5389      0.00000
     19       4.9294      0.00000
     20       5.0829      0.00000

 k-point    17 :       0.5000    0.2500    0.0000
  band No.  band energies     occupation 
      1     -29.1446      2.00000
      2     -29.1409      2.00000
      3     -21.0879      2.00000
      4     -12.7050      2.00000
      5     -12.6710      2.00000
      6     -12.6621      2.00000
      7     -12.6615      2.00000
      8     -12.6533      2.00000
      9     -12.6198      2.00000
     10      -7.9721      2.00000
     11      -7.9435      2.00000
     12      -7.9288      2.00000
     13      -5.2579      2.00000
     14       0.8391      2.00000
     15       1.4416      2.00000
     16       1.4417      2.00000
     17       4.3040      0.00000
     18       4.5312      0.00000
     19       4.7419      0.00000
     20       4.7746      0.00000

 k-point    18 :       0.0000    0.3750    0.0000
  band No.  band energies     occupation 
      1     -29.1451      2.00000
      2     -29.1403      2.00000
      3     -21.0881      2.00000
      4     -12.7073      2.00000
      5     -12.7073      2.00000
      6     -12.6953      2.00000
      7     -12.6222      2.00000
      8     -12.6205      2.00000
      9     -12.6205      2.00000
     10      -7.9853      2.00000
     11      -7.9273      2.00000
     12      -7.9273      2.00000
     13      -5.2835      2.00000
     14       0.8816      2.00000
     15       1.7204      2.00000
     16       1.7204      2.00000
     17       3.3105      0.00000
     18       4.0001      0.00000
     19       4.9381      0.00000
     20       5.2124      0.00000

 k-point    19 :       0.1250    0.3750    0.0000
  band No.  band energies     occupation 
      1     -29.1444      2.00000
      2     -29.1410      2.00000
      3     -21.0882      2.00000
      4     -12.7110      2.00000
      5     -12.7067      2.00000
      6     -12.6983      2.00000
      7     -12.6229      2.00000
      8     -12.6218      2.00000
      9     -12.6144      2.00000
     10      -7.9829      2.00000
     11      -7.9313      2.00000
     12      -7.9261      2.00000
     13      -5.2756      2.00000
     14       0.9794      2.00000
     15       1.5531      2.00000
     16       1.6711      2.00000
     17       3.3889      0.00000
     18       4.0750      0.00000
     19       5.1795      0.00000
     20       5.2624      0.00000

 k-point    20 :       0.2500    0.3750    0.0000
  band No.  band energies     occupation 
      1     -29.1434      2.00000
      2     -29.1419      2.00000
      3     -21.0882      2.00000
      4     -12.7130      2.00000
      5     -12.6989      2.00000
      6     -12.6891      2.00000
      7     -12.6330      2.00000
      8     -12.6288      2.00000
      9     -12.6132      2.00000
     10      -7.9706      2.00000
     11      -7.9456      2.00000
     12      -7.9260      2.00000
     13      -5.2616      2.00000
     14       1.1115      2.00000
     15       1.2258      2.00000
     16       1.5723      2.00000
     17       3.7692      0.00000
     18       4.3285      0.00000
     19       5.1318      0.00000
     20       5.3173      0.00000

 k-point    21 :       0.0000    0.5000    0.0000
  band No.  band energies     occupation 
      1     -29.1445      2.00000
      2     -29.1408      2.00000
      3     -21.0883      2.00000
      4     -12.7105      2.00000
      5     -12.7105      2.00000
      6     -12.7061      2.00000
      7     -12.6187      2.00000
      8     -12.6187      2.00000
      9     -12.6108      2.00000
     10      -7.9877      2.00000
     11      -7.9256      2.00000
     12      -7.9256      2.00000
     13      -5.2828      2.00000
     14       0.9913      2.00000
     15       1.7126      2.00000
     16       1.7126      2.00000
     17       3.1587      0.00000
     18       3.8753      0.00000
     19       5.1810      0.00000
     20       5.5176      0.00000

 k-point    22 :       0.1250    0.1250    0.1250
  band No.  band energies     occupation 
      1     -29.1459      2.00000
      2     -29.1396      2.00000
      3     -21.0876      2.00000
      4     -12.7010      2.00000
      5     -12.6873      2.00000
      6     -12.6684      2.00000
      7     -12.6516      2.00000
      8     -12.6373      2.00000
      9     -12.6235      2.00000
     10      -7.9735      2.00000
     11      -7.9348      2.00000
     12      -7.9309      2.00000
     13      -5.2912      2.00000
     14       0.8623      2.00000
     15       1.5521      2.00000
     16       1.6384      2.00000
     17       3.9784      0.00000
     18       3.9914      0.00000
     19       4.7110      0.00000
     20       4.8838      0.00000

 k-point    23 :       0.2500    0.1250    0.1250
  band No.  band energies     occupation 
      1     -29.1444      2.00000
      2     -29.1410      2.00000
      3     -21.0879      2.00000
      4     -12.7040      2.00000
      5     -12.6818      2.00000
      6     -12.6768      2.00000
      7     -12.6489      2.00000
      8     -12.6388      2.00000
      9     -12.6229      2.00000
     10      -7.9761      2.00000
     11      -7.9394      2.00000
     12      -7.9288      2.00000
     13      -5.2572      2.00000
     14       0.8324      2.00000
     15       1.4192      2.00000
     16       1.5079      2.00000
     17       4.0913      0.00000
     18       4.5006      0.00000
     19       4.8561      0.00000
     20       5.1184      0.00000

 k-point    24 :       0.3750    0.1250    0.1250
  band No.  band energies     occupation 
      1     -29.1427      2.00000
      2     -29.1427      2.00000
      3     -21.0881      2.00000
      4     -12.7036      2.00000
      5     -12.6875      2.00000
      6     -12.6661      2.00000
      7     -12.6606      2.00000
      8     -12.6293      2.00000
      9     -12.6278      2.00000
     10      -7.9755      2.00000
     11      -7.9425      2.00000
     12      -7.9279      2.00000
     13      -5.2446      2.00000
     14       0.8423      2.00000
     15       1.3324      2.00000
     16       1.4706      2.00000
     17       4.3857      0.00000
     18       4.4599      0.00000
     19       4.9944      0.00000
     20       5.1963      0.00000

 k-point    25 :       0.1250    0.2500    0.1250
  band No.  band energies     occupation 
      1     -29.1445      2.00000
      2     -29.1409      2.00000
      3     -21.0881      2.00000
      4     -12.7108      2.00000
      5     -12.6944      2.00000
      6     -12.6921      2.00000
      7     -12.6338      2.00000
      8     -12.6237      2.00000
      9     -12.6192      2.00000
     10      -7.9789      2.00000
     11      -7.9345      2.00000
     12      -7.9283      2.00000
     13      -5.2700      2.00000
     14       0.9125      2.00000
     15       1.5536      2.00000
     16       1.5558      2.00000
     17       3.6670      0.00000
     18       4.2259      0.00000
     19       5.0215      0.00000
     20       5.2011      0.00000

 k-point    26 :       0.2500    0.2500    0.1250
  band No.  band energies     occupation 
      1     -29.1434      2.00000
      2     -29.1420      2.00000
      3     -21.0882      2.00000
      4     -12.7156      2.00000
      5     -12.6950      2.00000
      6     -12.6813      2.00000
      7     -12.6472      2.00000
      8     -12.6201      2.00000
      9     -12.6166      2.00000
     10      -7.9687      2.00000
     11      -7.9459      2.00000
     12      -7.9281      2.00000
     13      -5.2594      2.00000
     14       1.0528      2.00000
     15       1.3027      2.00000
     16       1.4984      2.00000
     17       3.9666      0.00000
     18       4.3440      0.00000
     19       4.8562      0.00000
     20       5.2328      0.00000

 k-point    27 :       0.3750    0.2500    0.1250
  band No.  band energies     occupation 
      1     -29.1432      2.00000
      2     -29.1421      2.00000
      3     -21.0882      2.00000
      4     -12.7135      2.00000
      5     -12.6907      2.00000
      6     -12.6650      2.00000
      7     -12.6631      2.00000
      8     -12.6271      2.00000
      9     -12.6162      2.00000
     10      -7.9634      2.00000
     11      -7.9524      2.00000
     12      -7.9281      2.00000
     13      -5.2538      2.00000
     14       1.0001      2.00000
     15       1.2898      2.00000
     16       1.4606      2.00000
     17       4.2953      0.00000
     18       4.4539      0.00000
     19       4.5751      0.00000
     20       5.3183      0.00000

 k-point    28 :       0.1250    0.3750    0.1250
  band No.  band energies     occupation 
      1     -29.1440      2.00000
      2     -29.1414      2.00000
      3     -21.0883      2.00000
      4     -12.7174      2.00000
      5     -12.6993      2.00000
      6     -12.6973      2.00000
      7     -12.6324      2.00000
      8     -12.6175      2.00000
      9     -12.6119      2.00000
     10      -7.9783      2.00000
     11      -7.9345      2.00000
     12      -7.9277      2.00000
     13      -5.2718      2.00000
     14       1.0514      2.00000
     15       1.5198      2.00000
     16       1.5353      2.00000
     17       3.5520      0.00000
     18       4.0648      0.00000
     19       5.2059      0.00000
     20       5.2216      0.00000

 k-point    29 :       0.2500    0.2500    0.2500
  band No.  band energies     occupation 
      1     -29.1427      2.00000
      2     -29.1427      2.00000
      3     -21.0883      2.00000
      4     -12.7210      2.00000
      5     -12.6958      2.00000
      6     -12.6651      2.00000
      7     -12.6651      2.00000
      8     -12.6152      2.00000
      9     -12.6143      2.00000
     10      -7.9561      2.00000
     11      -7.9561      2.00000
     12      -7.9297      2.00000
     13      -5.2607      2.00000
     14       1.2347      2.00000
     15       1.2347      2.00000
     16       1.3863      2.00000
     17       4.1970      0.00000
     18       4.3859      0.00000
     19       4.3859      0.00000
     20       5.2398      0.00000


--------------------------------------------------------------------------------------------------------


 soft charge-density along one line, spin component           1
         0         1         2         3         4         5         6         7         8         9
 total charge-density along one line
 
 pseudopotential strength for first ion, spin component:           1
 18.605  -4.879   0.000  -0.000   0.000  -0.000   0.000  -0.000
 -4.879   1.285  -0.000   0.000  -0.000   0.000  -0.000   0.000
  0.000  -0.000   2.409  -0.000   0.000  -2.960   0.000  -0.000
 -0.000   0.000  -0.000   2.409   0.000   0.000  -2.960  -0.000
  0.000  -0.000   0.000   0.000   2.409  -0.000  -0.000  -2.960
 -0.000   0.000  -2.960   0.000  -0.000   3.606  -0.000   0.000
  0.000  -0.000   0.000  -2.960  -0.000  -0.000   3.606   0.000
 -0.000   0.000  -0.000  -0.000  -2.960   0.000   0.000   3.606
  0.000  -0.000   0.000  -0.000   0.000  -0.000   0.000  -0.000
 -0.000   0.000  -0.000   0.000  -0.000   0.000  -0.000   0.000
  0.000  -0.000  -0.000  -0.000  -0.000   0.000   0.000   0.000
  0.000  -0.000  -0.000   0.000  -0.000   0.000  -0.000   0.000
 -0.000   0.000  -0.000  -0.000   0.000   0.000   0.000  -0.000
 total augmentation occupancy for first ion, spin component:           1
  1.989  -0.028   0.000   0.000   0.000   0.000   0.000   0.000  -0.000   0.000  -0.000   0.000   0.000
 -0.028   0.491   0.000   0.000   0.000   0.000   0.000   0.000   0.000   0.000  -0.000  -0.000  -0.000
  0.000   0.000   2.011   0.000   0.000   0.013  -0.000   0.000   0.000   0.000   0.000   0.000   0.000
  0.000   0.000   0.000   2.011   0.000   0.000   0.013   0.000   0.000   0.000   0.000   0.000   0.000
  0.000   0.000   0.000   0.000   2.011   0.000   0.000   0.013   0.000   0.000   0.000   0.000   0.000
  0.000   0.000   0.013  -0.000   0.000   0.016   0.000   0.000   0.000   0.000   0.000   0.000   0.000
  0.000   0.000   0.000   0.013   0.000   0.000   0.016  -0.000   0.000   0.000   0.000   0.000   0.000
  0.000   0.000   0.000  -0.000   0.013   0.000  -0.000   0.016   0.000   0.000   0.000   0.000   0.000
 -0.000   0.000   0.000   0.000   0.000   0.000   0.000   0.000   0.005   0.000   0.000  -0.000   0.000
  0.000   0.000   0.000   0.000   0.000   0.000   0.000   0.000   0.000   0.005  -0.000   0.000   0.000
  0.000  -0.000   0.000   0.000   0.000   0.000   0.000   0.000   0.000   0.000   0.025   0.000   0.000
  0.000   0.000   0.000   0.000   0.000   0.000   0.000   0.000  -0.000   0.000   0.000   0.005  -0.000
  0.000  -0.000   0.000   0.000   0.000   0.000   0.000   0.000   0.000   0.000   0.000   0.000   0.025


------------------------ aborting loop because EDIFF is reached ----------------------------------------


    CHARGE:  cpu time    0.0478: real time    0.0478
    FORLOC:  cpu time    0.0080: real time    0.0080
    FORNL :  cpu time    0.0632: real time    0.0633
    STRESS:  cpu time    0.2449: real time    0.2450
    FORCOR:  cpu time    0.0903: real time    0.0903
    FORHAR:  cpu time    0.0241: real time    0.0241
    MIXING:  cpu time    0.0061: real time    0.0062
    OFIELD:  cpu time    0.0000: real time    0.0000

  FORCE on cell =-STRESS in cart. coord.  units (eV):
  Direction    XX          YY          ZZ          XY          YZ          ZX
  --------------------------------------------------------------------------------------
  Alpha Z    88.25421    88.25421    88.25421
  Ewald    -522.57265  -522.57265  -522.57265    -0.00000    -0.00000     0.00041
  Hartree   176.19897   176.19897   176.19897    -0.00000     0.00000     0.00004
  E(xc)    -128.25487  -128.25487  -128.25488     0.00000     0.00000     0.00000
  Local      23.79285    23.79285    23.79285     0.00000    -0.00000    -0.00032
  n-local   -21.23740   -21.21856   -22.33691     0.91503    -0.47882     0.72560
  augment   -13.48230   -13.48230   -13.48230     0.00000    -0.00000     0.00000
  Kinetic   398.10438   398.59271   396.28535     2.14133    -1.26941     1.82126
  Fock        0.00000     0.00000     0.00000     0.00000     0.00000     0.00000
  -------------------------------------------------------------------------------------
  Total      -0.00059    -0.00059    -0.00059     0.00000     0.00000    -0.00000
  in kB      -0.00563    -0.00563    -0.00563     0.00000     0.00000    -0.00000
  external pressure =       -0.01 kB  Pullay stress =        0.00 kB


 VOLUME and BASIS-vectors are now :
 -----------------------------------------------------------------------------
  energy-cutoff  :      520.00
  volume of cell :      168.09
      direct lattice vectors                 reciprocal lattice vectors
     4.380263552 -4.380263552 -0.000000000     0.114148383 -0.114148383 -0.114148383
    -4.380263552  0.000000000 -4.380263552     0.000000000  0.000000000 -0.228296765
     4.380263552  4.380263552  0.000000000     0.114148383  0.114148383 -0.114148383

  length of vectors
     6.194628123  6.194628123  6.194628123     0.197710798  0.228296765  0.197710798


 FORCES acting on ions
    electron-ion (+dipol)            ewald-force                    non-local-force                 convergence-correction
 -----------------------------------------------------------------------------------------------
   -.225E-02 -.726E-13 -.279E-04   -.472E-03 0.753E-14 0.175E-03   0.000E+00 -.847E-21 -.800E-23   0.124E-07 0.486E-14 0.219E-08
   0.222E-02 -.217E-02 -.219E-02   0.252E-03 -.310E-03 -.136E-03   -.954E-17 -.130E-16 0.347E-17   -.180E-07 0.222E-07 0.170E-07
   0.222E-02 0.217E-02 -.219E-02   0.252E-03 0.310E-03 -.136E-03   0.134E-16 0.737E-17 0.347E-17   -.180E-07 -.222E-07 0.170E-07
   0.300E-04 0.484E-13 -.155E-04   -.323E-04 -.142E-13 0.970E-04   -.127E-20 0.212E-21 -.235E-23   -.450E-08 0.717E-14 0.106E-08
 -----------------------------------------------------------------------------------------------
   0.222E-02 0.550E-12 -.443E-02   -.161E-15 -.111E-15 0.643E-15   0.390E-17 -.564E-17 0.694E-17   -.281E-07 0.274E-13 0.372E-07
 
 
 POSITION                                       TOTAL-FORCE (eV/Angst)
 -----------------------------------------------------------------------------------
      4.38027      0.00000      0.00000         0.000000     -0.000000     -0.000000
      2.19013     -2.19013     -2.19013         0.000000      0.000000      0.000000
      2.19013      2.19013     -2.19013        -0.000000     -0.000000     -0.000000
      0.00000      0.00000     -0.00000         0.000000     -0.000000     -0.000000
 -----------------------------------------------------------------------------------
    total drift:                                0.002224      0.000000     -0.004432


--------------------------------------------------------------------------------------------------------



  FREE ENERGIE OF THE ION-ELECTRON SYSTEM (eV)
  ---------------------------------------------------
  free  energy   TOTEN  =        -8.66436888 eV

  energy  without entropy=       -8.66436888  energy(sigma->0) =       -8.66436888
 
 d Force = 0.0000000E+00[ 0.000E+00, 0.000E+00]  d Energy =-0.1321135E-05 0.132E-05
 d Force = 0.0000000E+00[ 0.000E+00, 0.000E+00]  d Ewald  = 0.1809587E+00-0.181E+00


--------------------------------------------------------------------------------------------------------


    POTLOK:  cpu time    0.0870: real time    0.0871


--------------------------------------------------------------------------------------------------------




--------------------------------------------------------------------------------------------------------


  
 reached required accuracy - stopping structural energy minimisation
     LOOP+:  cpu time    2.8121: real time    2.8235
    4ORBIT:  cpu time    0.0000: real time    0.0000

 total amount of memory used by VASP MPI-rank0    56208. kBytes
=======================================================================

   base      :      30000. kBytes
   nonl-proj :       6032. kBytes
   fftplans  :       4867. kBytes
   grid      :       9037. kBytes
   one-center:          8. kBytes
   wavefun   :       6264. kBytes
 
  
  
 General timing and accounting informations for this job:
 ========================================================
  
                  Total CPU time used (sec):       16.925
                            User time (sec):       16.448
                          System time (sec):        0.476
                         Elapsed time (sec):       17.053
  
                   Maximum memory used (kb):      121148.
                   Average memory used (kb):           0.
  
                          Minor page faults:        44931
                          Major page faults:            0
                 Voluntary context switches:          576
