<?xml version="1.0" encoding="ISO-8859-1"?>
<modeling>
 <generator>
  <i name="program" type="string">vasp </i>
  <i name="version" type="string">5.4.4.18Apr17-6-g9f103f2a35  </i>
  <i name="subversion" type="string">(build Jun 23 2019 17:35:09) complex            parallel </i>
  <i name="platform" type="string">LinuxIFC </i>
  <i name="date" type="string">2020 01 14 </i>
  <i name="time" type="string">23:23:07 </i>
 </generator>
 <incar>
  <i type="int" name="ISTART">     0</i>
  <i type="string" name="PREC">acc</i>
  <i type="string" name="ALGO"> Normal</i>
  <i type="int" name="ISPIN">     1</i>
  <i type="int" name="NELMIN">     5</i>
  <i type="int" name="IBRION">     2</i>
  <i name="EDIFF">      0.00001000</i>
  <i name="EDIFFG">     -0.00100000</i>
  <i type="int" name="NSW">   100</i>
  <i type="int" name="ISIF">     3</i>
  <i name="ENCUT">    520.00000000</i>
  <i type="logical" name="LREAL"> F  </i>
  <i type="logical" name="LPLANE"> T  </i>
  <i type="int" name="ISMEAR">     0</i>
  <i name="SIGMA">      0.05000000</i>
  <i type="logical" name="LWAVE"> F  </i>
  <i type="logical" name="LCHARG"> F  </i>
  <v type="int" name="KPOINT_BSE">    -1     0     0     0</v>
  <i type="string" name="GGA"> PE</i>
 </incar>
 <structure name="primitive_cell" >
  <crystal>
   <varray name="basis" >
    <v>       4.37406600      -4.37406600       0.00000000 </v>
    <v>      -4.37406600       0.00000000      -4.37406600 </v>
    <v>       4.37406600       4.37406600       0.00000000 </v>
   </varray>
   <i name="volume">    167.37322759 </i>
   <varray name="rec_basis" >
    <v>       0.11431012      -0.11431012      -0.11431012 </v>
    <v>       0.00000000       0.00000000      -0.22862024 </v>
    <v>       0.11431012       0.11431012      -0.11431012 </v>
   </varray>
  </crystal>
  <varray name="positions" >
   <v>      -0.49999954       0.00000000      -0.49999954 </v>
   <v>      -0.25000103       0.49999931       0.24999966 </v>
   <v>       0.24999966       0.49999931      -0.25000103 </v>
   <v>       0.00000000       0.00000000       0.00000000 </v>
  </varray>
 </structure>
 <varray name="primitive_index" >
  <v type="int" >        1 </v>
  <v type="int" >        2 </v>
  <v type="int" >        3 </v>
  <v type="int" >        4 </v>
 </varray>
 <kpoints>
  <generation param="Gamma">
   <v type="int" name="divisions">       8        8        8 </v>
   <v name="usershift">      0.00000000       0.00000000       0.00000000 </v>
   <v name="genvec1">      0.12500000       0.00000000       0.00000000 </v>
   <v name="genvec2">      0.00000000       0.12500000       0.00000000 </v>
   <v name="genvec3">      0.00000000       0.00000000       0.12500000 </v>
   <v name="shift">      0.00000000       0.00000000       0.00000000 </v>
  </generation>
  <varray name="kpointlist" >
   <v>       0.00000000       0.00000000       0.00000000 </v>
   <v>       0.12500000       0.00000000       0.00000000 </v>
   <v>       0.25000000       0.00000000       0.00000000 </v>
   <v>       0.37500000       0.00000000       0.00000000 </v>
   <v>       0.50000000       0.00000000       0.00000000 </v>
   <v>       0.00000000       0.12500000       0.00000000 </v>
   <v>       0.12500000       0.12500000       0.00000000 </v>
   <v>       0.25000000       0.12500000       0.00000000 </v>
   <v>       0.37500000       0.12500000       0.00000000 </v>
   <v>       0.50000000       0.12500000       0.00000000 </v>
   <v>      -0.37500000       0.12500000       0.00000000 </v>
   <v>      -0.25000000       0.12500000       0.00000000 </v>
   <v>       0.00000000       0.25000000       0.00000000 </v>
   <v>       0.12500000       0.25000000       0.00000000 </v>
   <v>       0.25000000       0.25000000       0.00000000 </v>
   <v>       0.37500000       0.25000000       0.00000000 </v>
   <v>       0.50000000       0.25000000       0.00000000 </v>
   <v>       0.00000000       0.37500000       0.00000000 </v>
   <v>       0.12500000       0.37500000       0.00000000 </v>
   <v>       0.25000000       0.37500000       0.00000000 </v>
   <v>       0.00000000       0.50000000       0.00000000 </v>
   <v>       0.12500000       0.12500000       0.12500000 </v>
   <v>       0.25000000       0.12500000       0.12500000 </v>
   <v>       0.37500000       0.12500000       0.12500000 </v>
   <v>       0.12500000       0.25000000       0.12500000 </v>
   <v>       0.25000000       0.25000000       0.12500000 </v>
   <v>       0.37500000       0.25000000       0.12500000 </v>
   <v>       0.12500000       0.37500000       0.12500000 </v>
   <v>       0.25000000       0.25000000       0.25000000 </v>
  </varray>
  <varray name="weights" >
   <v>       0.00195312 </v>
   <v>       0.01562500 </v>
   <v>       0.01562500 </v>
   <v>       0.01562500 </v>
   <v>       0.00781250 </v>
   <v>       0.01171875 </v>
   <v>       0.04687500 </v>
   <v>       0.04687500 </v>
   <v>       0.04687500 </v>
   <v>       0.04687500 </v>
   <v>       0.04687500 </v>
   <v>       0.02343750 </v>
   <v>       0.01171875 </v>
   <v>       0.04687500 </v>
   <v>       0.04687500 </v>
   <v>       0.04687500 </v>
   <v>       0.02343750 </v>
   <v>       0.01171875 </v>
   <v>       0.04687500 </v>
   <v>       0.02343750 </v>
   <v>       0.00585938 </v>
   <v>       0.04687500 </v>
   <v>       0.09375000 </v>
   <v>       0.04687500 </v>
   <v>       0.04687500 </v>
   <v>       0.09375000 </v>
   <v>       0.04687500 </v>
   <v>       0.02343750 </v>
   <v>       0.01171875 </v>
  </varray>
 </kpoints>
 <parameters>
  <separator name="general" >
   <i type="string" name="SYSTEM">unknown system</i>
   <i type="logical" name="LCOMPAT"> F  </i>
  </separator>
  <separator name="electronic" >
   <i type="string" name="PREC">acc</i>
   <i name="ENMAX">    520.00000000</i>
   <i name="ENAUG">    427.85300000</i>
   <i name="EDIFF">      0.00001000</i>
   <i type="int" name="IALGO">    38</i>
   <i type="int" name="IWAVPR">    11</i>
   <i type="int" name="NBANDS">    20</i>
   <i name="NELECT">     32.00000000</i>
   <i type="int" name="TURBO">     0</i>
   <i type="int" name="IRESTART">     0</i>
   <i type="int" name="NREBOOT">     0</i>
   <i type="int" name="NMIN">     0</i>
   <i name="EREF">      0.00000000</i>
   <separator name="electronic smearing" >
    <i type="int" name="ISMEAR">     0</i>
    <i name="SIGMA">      0.05000000</i>
    <i name="KSPACING">      0.50000000</i>
    <i type="logical" name="KGAMMA"> T  </i>
   </separator>
   <separator name="electronic projectors" >
    <i type="logical" name="LREAL"> F  </i>
    <v name="ROPT">      0.00000000      0.00000000      0.00000000</v>
    <i type="int" name="LMAXPAW">  -100</i>
    <i type="int" name="LMAXMIX">     2</i>
    <i type="logical" name="NLSPLINE"> F  </i>
   </separator>
   <separator name="electronic startup" >
    <i type="int" name="ISTART">     0</i>
    <i type="int" name="ICHARG">     2</i>
    <i type="int" name="INIWAV">     1</i>
   </separator>
   <separator name="electronic spin" >
    <i type="int" name="ISPIN">     1</i>
    <i type="logical" name="LNONCOLLINEAR"> F  </i>
    <v name="MAGMOM">      1.00000000      1.00000000      1.00000000      1.00000000</v>
    <i name="NUPDOWN">     -1.00000000</i>
    <i type="logical" name="LSORBIT"> F  </i>
    <v name="SAXIS">      0.00000000      0.00000000      1.00000000</v>
    <i type="logical" name="LSPIRAL"> F  </i>
    <v name="QSPIRAL">      0.00000000      0.00000000      0.00000000</v>
    <i type="logical" name="LZEROZ"> F  </i>
   </separator>
   <separator name="electronic exchange-correlation" >
    <i type="logical" name="LASPH"> F  </i>
    <i type="logical" name="LMETAGGA"> F  </i>
   </separator>
   <separator name="electronic convergence" >
    <i type="int" name="NELM">    60</i>
    <i type="int" name="NELMDL">    -5</i>
    <i type="int" name="NELMIN">     5</i>
    <i name="ENINI">    520.00000000</i>
    <separator name="electronic convergence detail" >
     <i type="logical" name="LDIAG"> T  </i>
     <i type="logical" name="LSUBROT"> F  </i>
     <i name="WEIMIN">      0.00100000</i>
     <i name="EBREAK">      0.00000013</i>
     <i name="DEPER">      0.30000000</i>
     <i type="int" name="NRMM">     4</i>
     <i name="TIME">      0.40000000</i>
    </separator>
   </separator>
   <separator name="electronic mixer" >
    <i name="AMIX">      0.40000000</i>
    <i name="BMIX">      1.00000000</i>
    <i name="AMIN">      0.10000000</i>
    <i name="AMIX_MAG">      1.60000000</i>
    <i name="BMIX_MAG">      1.00000000</i>
    <separator name="electronic mixer details" >
     <i type="int" name="IMIX">     4</i>
     <i type="logical" name="MIXFIRST"> F  </i>
     <i type="int" name="MAXMIX">   -45</i>
     <i name="WC">    100.00000000</i>
     <i type="int" name="INIMIX">     1</i>
     <i type="int" name="MIXPRE">     1</i>
     <i type="int" name="MREMOVE">     5</i>
    </separator>
   </separator>
   <separator name="electronic dipolcorrection" >
    <i type="logical" name="LDIPOL"> F  </i>
    <i type="logical" name="LMONO"> F  </i>
    <i type="int" name="IDIPOL">     0</i>
    <i name="EPSILON">      1.00000000</i>
    <v name="DIPOL">   -100.00000000   -100.00000000   -100.00000000</v>
    <i name="EFIELD">      0.00000000</i>
   </separator>
  </separator>
  <separator name="grids" >
   <i type="int" name="NGX">    48</i>
   <i type="int" name="NGY">    48</i>
   <i type="int" name="NGZ">    48</i>
   <i type="int" name="NGXF">    96</i>
   <i type="int" name="NGYF">    96</i>
   <i type="int" name="NGZF">    96</i>
   <i type="logical" name="ADDGRID"> F  </i>
  </separator>
  <separator name="ionic" >
   <i type="int" name="NSW">   100</i>
   <i type="int" name="IBRION">     2</i>
   <i type="int" name="MDALGO">     0</i>
   <i type="int" name="ISIF">     3</i>
   <i name="PSTRESS">      0.00000000</i>
   <i name="EDIFFG">     -0.00100000</i>
   <i type="int" name="NFREE">     1</i>
   <i name="POTIM">      0.50000000</i>
   <i name="SMASS">     -3.00000000</i>
   <i name="SCALEE">      1.00000000</i>
  </separator>
  <separator name="ionic md" >
   <i name="TEBEG">      0.00010000</i>
   <i name="TEEND">      0.00010000</i>
   <i type="int" name="NBLOCK">     1</i>
   <i type="int" name="KBLOCK">   100</i>
   <i type="int" name="NPACO">   256</i>
   <i name="APACO">     16.00000000</i>
  </separator>
  <separator name="symmetry" >
   <i type="int" name="ISYM">     2</i>
   <i name="SYMPREC">      0.00001000</i>
  </separator>
  <separator name="dos" >
   <i type="int" name="LORBIT">     0</i>
   <v name="RWIGS">     -1.00000000     -1.00000000     -1.00000000</v>
   <i type="int" name="NEDOS">   301</i>
   <i name="EMIN">     10.00000000</i>
   <i name="EMAX">    -10.00000000</i>
   <i name="EFERMI">      0.00000000</i>
  </separator>
  <separator name="writing" >
   <i type="int" name="NWRITE">     2</i>
   <i type="logical" name="LWAVE"> F  </i>
   <i type="logical" name="LDOWNSAMPLE"> F  </i>
   <i type="logical" name="LCHARG"> F  </i>
   <i type="logical" name="LPARD"> F  </i>
   <i type="logical" name="LVTOT"> F  </i>
   <i type="logical" name="LVHAR"> F  </i>
   <i type="logical" name="LELF"> F  </i>
   <i type="logical" name="LOPTICS"> F  </i>
   <v name="STM">      0.00000000      0.00000000      0.00000000      0.00000000      0.00000000      0.00000000      0.00000000</v>
  </separator>
  <separator name="performance" >
   <i type="int" name="NPAR">     1</i>
   <i type="int" name="NSIM">     4</i>
   <i type="int" name="NBLK">    -1</i>
   <i type="logical" name="LPLANE"> T  </i>
   <i type="logical" name="LSCALAPACK"> T  </i>
   <i type="logical" name="LSCAAWARE"> F  </i>
   <i type="logical" name="LSCALU"> F  </i>
   <i type="logical" name="LASYNC"> F  </i>
   <i type="logical" name="LORBITALREAL"> F  </i>
  </separator>
  <separator name="miscellaneous" >
   <i type="int" name="IDIOT">     3</i>
   <i type="int" name="ISPECIAL">     0</i>
   <i type="logical" name="LMUSIC"> F  </i>
   <v name="POMASS">    132.90000000     39.09800000    121.75000000</v>
   <v name="DARWINR">      0.00000000      0.00000000      0.00000000</v>
   <v name="DARWINV">      1.00000000      1.00000000      1.00000000</v>
   <i type="logical" name="LCORR"> T  </i>
  </separator>
  <i type="logical" name="GGA_COMPAT"> T  </i>
  <i type="logical" name="LBERRY"> F  </i>
  <i type="int" name="ICORELEVEL">     0</i>
  <i type="logical" name="LDAU"> F  </i>
  <i type="int" name="I_CONSTRAINED_M">     0</i>
  <separator name="electronic exchange-correlation" >
   <i type="string" name="GGA">PE</i>
   <i type="int" name="VOSKOWN">     0</i>
   <i type="logical" name="LHFCALC"> F  </i>
   <i type="string" name="PRECFOCK"></i>
   <i type="logical" name="LSYMGRAD"> F  </i>
   <i type="logical" name="LHFONE"> F  </i>
   <i type="logical" name="LRHFCALC"> F  </i>
   <i type="logical" name="LTHOMAS"> F  </i>
   <i type="logical" name="LMODELHF"> F  </i>
   <i name="ENCUT4O">     -1.00000000</i>
   <i type="int" name="EXXOEP">     0</i>
   <i type="int" name="FOURORBIT">     0</i>
   <i name="AEXX">      0.00000000</i>
   <i name="HFALPHA">      0.00000000</i>
   <i name="MCALPHA">      0.00000000</i>
   <i name="ALDAX">      1.00000000</i>
   <i name="AGGAX">      1.00000000</i>
   <i name="ALDAC">      1.00000000</i>
   <i name="AGGAC">      1.00000000</i>
   <i type="int" name="NKREDX">     1</i>
   <i type="int" name="NKREDY">     1</i>
   <i type="int" name="NKREDZ">     1</i>
   <i type="logical" name="SHIFTRED"> F  </i>
   <i type="logical" name="ODDONLY"> F  </i>
   <i type="logical" name="EVENONLY"> F  </i>
   <i type="int" name="LMAXFOCK">     0</i>
   <i type="int" name="NMAXFOCKAE">     0</i>
   <i type="logical" name="LFOCKAEDFT"> F  </i>
   <i name="HFSCREEN">      0.00000000</i>
   <i name="HFSCREENC">      0.00000000</i>
   <i type="int" name="NBANDSGWLOW">     0</i>
  </separator>
  <separator name="vdW DFT" >
   <i type="logical" name="LUSE_VDW"> F  </i>
   <i name="Zab_VDW">     -0.84910000</i>
   <i name="PARAM1">      0.12340000</i>
   <i name="PARAM2">      1.00000000</i>
   <i name="PARAM3">      0.00000000</i>
  </separator>
  <separator name="model GW" >
   <i type="int" name="MODEL_GW">     0</i>
   <i name="MODEL_EPS0">     25.10598414</i>
   <i name="MODEL_ALPHA">      1.00000000</i>
  </separator>
  <separator name="linear response parameters" >
   <i type="logical" name="LEPSILON"> F  </i>
   <i type="logical" name="LRPA"> F  </i>
   <i type="logical" name="LNABLA"> F  </i>
   <i type="logical" name="LVEL"> F  </i>
   <i type="int" name="KINTER">     0</i>
   <i name="CSHIFT">      0.10000000</i>
   <i name="OMEGAMAX">     -1.00000000</i>
   <i name="DEG_THRESHOLD">      0.00200000</i>
   <i name="RTIME">     -0.10000000</i>
   <i name="WPLASMAI">      0.00000000</i>
   <v name="DFIELD">      0.00000000      0.00000000      0.00000000</v>
   <v name="WPLASMA">      0.00000000      0.00000000      0.00000000      0.00000000      0.00000000      0.00000000      0.00000000      0.00000000      0.00000000</v>
  </separator>
  <separator name="orbital magnetization" >
   <i type="logical" name="NUCIND"> F  </i>
   <v name="MAGPOS">      0.00000000      0.00000000      0.00000000</v>
   <i type="logical" name="LNICSALL"> T  </i>
   <i type="logical" name="ORBITALMAG"> F  </i>
   <i type="logical" name="LMAGBLOCH"> F  </i>
   <i type="logical" name="LCHIMAG"> F  </i>
   <i type="logical" name="LGAUGE"> T  </i>
   <i type="int" name="MAGATOM">     0</i>
   <v name="MAGDIPOL">      0.00000000      0.00000000      0.00000000</v>
   <v name="AVECCONST">      0.00000000      0.00000000      0.00000000</v>
  </separator>
  <separator name="response functions" >
   <i type="logical" name="LADDER"> F  </i>
   <i type="logical" name="LRPAFORCE"> F  </i>
   <i type="logical" name="LFXC"> F  </i>
   <i type="logical" name="LHARTREE"> T  </i>
   <i type="int" name="IBSE">     0</i>
   <v type="int" name="KPOINT">    -1     0     0     0</v>
   <i type="logical" name="LTCTE"> F  </i>
   <i type="logical" name="LTETE"> F  </i>
   <i type="logical" name="LTRIPLET"> F  </i>
   <i type="logical" name="LFXCEPS"> F  </i>
   <i type="logical" name="LFXHEG"> F  </i>
   <i type="int" name="NATURALO">     2</i>
   <i type="logical" name="L2ORDER"> F  </i>
   <i type="logical" name="LMP2LT"> F  </i>
   <i type="logical" name="LUSEW"> F  </i>
   <i name="ENCUTGW">     -2.00000000</i>
   <i name="ENCUTGWSOFT">     -2.00000000</i>
   <i name="ENCUTLF">     -1.00000000</i>
   <i type="int" name="LMAXMP2">    -1</i>
   <i name="SCISSOR">      0.00000000</i>
   <i type="int" name="NOMEGA">     0</i>
   <i type="int" name="NOMEGAR">     0</i>
   <i type="int" name="NBANDSGW">    -1</i>
   <i type="int" name="NBANDSO">    -1</i>
   <i type="int" name="NBANDSV">    -1</i>
   <i type="int" name="NELM">     1</i>
   <i type="int" name="NELMHF">     1</i>
   <i type="int" name="DIM">     3</i>
   <i type="int" name="ANTIRES">     0</i>
   <i name="OMEGAMAX">    -30.00000000</i>
   <i name="OMEGAMIN">    -30.00000000</i>
   <i name="OMEGATL">   -200.00000000</i>
   <i type="int" name="OMEGAGRID">   140</i>
   <i name="CSHIFT">     -0.10000000</i>
   <i type="logical" name="SELFENERGY"> F  </i>
   <i type="logical" name="LSPECTRAL"> F  </i>
   <i type="logical" name="LSPECTRALGW"> F  </i>
   <i type="logical" name="LSINGLES"> F  </i>
   <i type="logical" name="LFERMIGW"> F  </i>
   <i type="logical" name="ODDONLYGW"> F  </i>
   <i type="logical" name="EVENONLYGW"> F  </i>
   <i type="int" name="NKREDLFX">     1</i>
   <i type="int" name="NKREDLFY">     1</i>
   <i type="int" name="NKREDLFZ">     1</i>
   <i type="int" name="MAXMEM">  2800</i>
   <i type="int" name="TELESCOPE">     0</i>
   <i type="int" name="TAUPAR">     1</i>
   <i type="int" name="OMEGAPAR">    -1</i>
   <i name="LAMBDA">      1.00000000</i>
  </separator>
  <separator name="External order field" >
   <i name="OFIELD_KAPPA">      0.00000000</i>
   <v name="OFIELD_K">      0.00000000      0.00000000      0.00000000</v>
   <i name="OFIELD_Q6_NEAR">      0.00000000</i>
   <i name="OFIELD_Q6_FAR">      0.00000000</i>
   <i name="OFIELD_A">      0.00000000</i>
  </separator>
 </parameters>
 <atominfo>
  <atoms>       4 </atoms>
  <types>       3 </types>
  <array name="atoms" >
   <dimension dim="1">ion</dimension>
   <field type="string">element</field>
   <field type="int">atomtype</field>
   <set>
    <rc><c>Cs</c><c>   1</c></rc>
    <rc><c>K </c><c>   2</c></rc>
    <rc><c>K </c><c>   2</c></rc>
    <rc><c>Sb</c><c>   3</c></rc>
   </set>
  </array>
  <array name="atomtypes" >
   <dimension dim="1">type</dimension>
   <field type="int">atomspertype</field>
   <field type="string">element</field>
   <field>mass</field>
   <field>valence</field>
   <field type="string">pseudopotential</field>
   <set>
    <rc><c>   1</c><c>Cs</c><c>    132.90000000</c><c>      9.00000000</c><c>  PAW_PBE Cs_sv 08Apr2002               </c></rc>
    <rc><c>   2</c><c>K </c><c>     39.09800000</c><c>      9.00000000</c><c>  PAW_PBE K_sv 06Sep2000                </c></rc>
    <rc><c>   1</c><c>Sb</c><c>    121.75000000</c><c>      5.00000000</c><c>  PAW_PBE Sb 06Sep2000                  </c></rc>
   </set>
  </array>
 </atominfo>
 <structure name="initialpos" >
  <crystal>
   <varray name="basis" >
    <v>       4.37406600      -4.37406600       0.00000000 </v>
    <v>      -4.37406600       0.00000000      -4.37406600 </v>
    <v>       4.37406600       4.37406600       0.00000000 </v>
   </varray>
   <i name="volume">    167.37322759 </i>
   <varray name="rec_basis" >
    <v>       0.11431012      -0.11431012      -0.11431012 </v>
    <v>       0.00000000       0.00000000      -0.22862024 </v>
    <v>       0.11431012       0.11431012      -0.11431012 </v>
   </varray>
  </crystal>
  <varray name="positions" >
   <v>       0.50000046       0.00000000       0.50000046 </v>
   <v>       0.74999897       0.49999931       0.24999966 </v>
   <v>       0.24999966       0.49999931       0.74999897 </v>
   <v>       0.00000000       0.00000000       0.00000000 </v>
  </varray>
 </structure>
 <calculation>
  <scstep>
   <time name="dav">    0.38    0.38</time>
   <time name="total">    0.47    0.47</time>
   <energy>
    <i name="alphaZ">     88.62988485 </i>
    <i name="ewald">  -1569.93787712 </i>
    <i name="hartreedc">   -540.40076287 </i>
    <i name="XCdc">     35.20911588 </i>
    <i name="pawpsdc">   1776.42413506 </i>
    <i name="pawaedc">  -1705.39518631 </i>
    <i name="eentropy">     -0.00280476 </i>
    <i name="bandstr">   -108.50586484 </i>
    <i name="atom">   2255.64356714 </i>
    <i name="e_fr_energy">    231.66420703 </i>
    <i name="e_wo_entrp">    231.66701179 </i>
    <i name="e_0_energy">    231.66560941 </i>
   </energy>
  </scstep>
  <scstep>
   <time name="dav">    0.41    0.41</time>
   <time name="total">    0.41    0.41</time>
   <energy>
    <i name="e_fr_energy">      9.81083615 </i>
    <i name="e_wo_entrp">      9.81083615 </i>
    <i name="e_0_energy">      9.81083615 </i>
   </energy>
  </scstep>
  <scstep>
   <time name="dav">    0.49    0.49</time>
   <time name="total">    0.49    0.49</time>
   <energy>
    <i name="e_fr_energy">     -9.00046377 </i>
    <i name="e_wo_entrp">     -9.00046377 </i>
    <i name="e_0_energy">     -9.00046377 </i>
   </energy>
  </scstep>
  <scstep>
   <time name="dav">    0.44    0.44</time>
   <time name="total">    0.44    0.44</time>
   <energy>
    <i name="e_fr_energy">     -9.66813486 </i>
    <i name="e_wo_entrp">     -9.66813486 </i>
    <i name="e_0_energy">     -9.66813486 </i>
   </energy>
  </scstep>
  <scstep>
   <time name="dav">    0.44    0.44</time>
   <time name="total">    0.50    0.50</time>
   <energy>
    <i name="e_fr_energy">     -9.69449326 </i>
    <i name="e_wo_entrp">     -9.69449326 </i>
    <i name="e_0_energy">     -9.69449326 </i>
   </energy>
  </scstep>
  <scstep>
   <time name="dav">    0.39    0.39</time>
   <time name="total">    0.53    0.53</time>
   <energy>
    <i name="e_fr_energy">     -8.77088639 </i>
    <i name="e_wo_entrp">     -8.77088639 </i>
    <i name="e_0_energy">     -8.77088639 </i>
   </energy>
  </scstep>
  <scstep>
   <time name="dav">    0.47    0.48</time>
   <time name="total">    0.62    0.62</time>
   <energy>
    <i name="e_fr_energy">     -8.66031656 </i>
    <i name="e_wo_entrp">     -8.66031656 </i>
    <i name="e_0_energy">     -8.66031656 </i>
   </energy>
  </scstep>
  <scstep>
   <time name="dav">    0.39    0.39</time>
   <time name="total">    0.54    0.54</time>
   <energy>
    <i name="e_fr_energy">     -8.67956619 </i>
    <i name="e_wo_entrp">     -8.67956619 </i>
    <i name="e_0_energy">     -8.67956619 </i>
   </energy>
  </scstep>
  <scstep>
   <time name="dav">    0.38    0.38</time>
   <time name="total">    0.52    0.52</time>
   <energy>
    <i name="e_fr_energy">     -8.66298180 </i>
    <i name="e_wo_entrp">     -8.66298180 </i>
    <i name="e_0_energy">     -8.66298180 </i>
   </energy>
  </scstep>
  <scstep>
   <time name="dav">    0.44    0.44</time>
   <time name="total">    0.58    0.58</time>
   <energy>
    <i name="e_fr_energy">     -8.66411418 </i>
    <i name="e_wo_entrp">     -8.66411418 </i>
    <i name="e_0_energy">     -8.66411418 </i>
   </energy>
  </scstep>
  <scstep>
   <time name="dav">    0.39    0.39</time>
   <time name="total">    0.53    0.53</time>
   <energy>
    <i name="e_fr_energy">     -8.66425025 </i>
    <i name="e_wo_entrp">     -8.66425025 </i>
    <i name="e_0_energy">     -8.66425025 </i>
   </energy>
  </scstep>
  <scstep>
   <time name="dav">    0.35    0.35</time>
   <time name="total">    0.43    0.43</time>
   <energy>
    <i name="alphaZ">     88.62988485 </i>
    <i name="ewald">  -1569.93787712 </i>
    <i name="hartreedc">   -527.43694028 </i>
    <i name="XCdc">     35.33301170 </i>
    <i name="pawpsdc">   1902.90984507 </i>
    <i name="pawaedc">  -1833.41761312 </i>
    <i name="eentropy">     -0.00000000 </i>
    <i name="bandstr">   -360.38812501 </i>
    <i name="atom">   2255.64356714 </i>
    <i name="e_fr_energy">     -8.66424676 </i>
    <i name="e_wo_entrp">     -8.66424676 </i>
    <i name="e_0_energy">     -8.66424676 </i>
   </energy>
  </scstep>
  <structure>
   <crystal>
    <varray name="basis" >
     <v>       4.37406600      -4.37406600       0.00000000 </v>
     <v>      -4.37406600       0.00000000      -4.37406600 </v>
     <v>       4.37406600       4.37406600       0.00000000 </v>
    </varray>
    <i name="volume">    167.37322759 </i>
    <varray name="rec_basis" >
     <v>       0.11431012      -0.11431012      -0.11431012 </v>
     <v>       0.00000000       0.00000000      -0.22862024 </v>
     <v>       0.11431012       0.11431012      -0.11431012 </v>
    </varray>
   </crystal>
   <varray name="positions" >
    <v>       0.50000046       0.00000000       0.50000046 </v>
    <v>       0.74999897       0.49999931       0.24999966 </v>
    <v>       0.24999966       0.49999931       0.74999897 </v>
    <v>       0.00000000       0.00000000       0.00000000 </v>
   </varray>
  </structure>
  <varray name="forces" >
   <v>       0.00000000       0.00000000      -0.00000000 </v>
   <v>      -0.00000000      -0.00000000       0.00000000 </v>
   <v>       0.00000000       0.00000000       0.00000000 </v>
   <v>       0.00000000       0.00000000      -0.00000000 </v>
  </varray>
  <varray name="stress" >
   <v>       0.61246989      -0.00000000       0.00000000 </v>
   <v>       0.00000000       0.61246989       0.00000000 </v>
   <v>       0.00000000      -0.00000000       0.61246989 </v>
  </varray>
  <energy>
   <i name="e_fr_energy">     -8.66424676 </i>
   <i name="e_wo_entrp">     -8.66424676 </i>
   <i name="e_0_energy">     -0.00000000 </i>
  </energy>
  <time name="totalsc">    6.71    6.73</time>
 </calculation>
 <calculation>
  <scstep>
   <time name="dav">    0.37    0.37</time>
   <time name="total">    0.51    0.51</time>
   <energy>
    <i name="alphaZ">     88.42502216 </i>
    <i name="ewald">  -1568.72733804 </i>
    <i name="hartreedc">   -527.06413791 </i>
    <i name="XCdc">     35.26932890 </i>
    <i name="pawpsdc">   1904.43196481 </i>
    <i name="pawaedc">  -1834.92401740 </i>
    <i name="eentropy">     -0.00000000 </i>
    <i name="bandstr">   -361.71967466 </i>
    <i name="atom">   2255.64356714 </i>
    <i name="e_fr_energy">     -8.66528499 </i>
    <i name="e_wo_entrp">     -8.66528499 </i>
    <i name="e_0_energy">     -8.66528499 </i>
   </energy>
  </scstep>
  <scstep>
   <time name="dav">    0.46    0.46</time>
   <time name="total">    0.60    0.60</time>
   <energy>
    <i name="e_fr_energy">     -8.66458611 </i>
    <i name="e_wo_entrp">     -8.66458611 </i>
    <i name="e_0_energy">     -8.66458611 </i>
   </energy>
  </scstep>
  <scstep>
   <time name="dav">    0.45    0.45</time>
   <time name="total">    0.58    0.58</time>
   <energy>
    <i name="e_fr_energy">     -8.66435120 </i>
    <i name="e_wo_entrp">     -8.66435120 </i>
    <i name="e_0_energy">     -8.66435120 </i>
   </energy>
  </scstep>
  <scstep>
   <time name="dav">    0.47    0.47</time>
   <time name="total">    0.61    0.61</time>
   <energy>
    <i name="e_fr_energy">     -8.66434797 </i>
    <i name="e_wo_entrp">     -8.66434797 </i>
    <i name="e_0_energy">     -8.66434797 </i>
   </energy>
  </scstep>
  <scstep>
   <time name="dav">    0.27    0.27</time>
   <time name="total">    0.36    0.36</time>
   <energy>
    <i name="alphaZ">     88.42502216 </i>
    <i name="ewald">  -1568.72733804 </i>
    <i name="hartreedc">   -528.10003956 </i>
    <i name="XCdc">     35.32425176 </i>
    <i name="pawpsdc">   1904.13820167 </i>
    <i name="pawaedc">  -1834.62366450 </i>
    <i name="eentropy">     -0.00000000 </i>
    <i name="bandstr">   -360.74434659 </i>
    <i name="atom">   2255.64356714 </i>
    <i name="e_fr_energy">     -8.66434596 </i>
    <i name="e_wo_entrp">     -8.66434596 </i>
    <i name="e_0_energy">     -8.66434596 </i>
   </energy>
  </scstep>
  <structure>
   <crystal>
    <varray name="basis" >
     <v>       4.37744133      -4.37744133      -0.00000000 </v>
     <v>      -4.37744133       0.00000000      -4.37744133 </v>
     <v>       4.37744133       4.37744133       0.00000000 </v>
    </varray>
    <i name="volume">    167.76099712 </i>
    <varray name="rec_basis" >
     <v>       0.11422198      -0.11422198      -0.11422198 </v>
     <v>       0.00000000       0.00000000      -0.22844395 </v>
     <v>       0.11422198       0.11422198      -0.11422198 </v>
    </varray>
   </crystal>
   <varray name="positions" >
    <v>       0.50000046       0.00000000       0.50000046 </v>
    <v>       0.74999897       0.49999931       0.24999966 </v>
    <v>       0.24999966       0.49999931       0.74999897 </v>
    <v>       0.00000000       0.00000000       0.00000000 </v>
   </varray>
  </structure>
  <varray name="forces" >
   <v>      -0.00000000      -0.00000000      -0.00000000 </v>
   <v>       0.00000000       0.00000000       0.00000000 </v>
   <v>       0.00000000      -0.00000000      -0.00000000 </v>
   <v>      -0.00000000      -0.00000000       0.00000000 </v>
  </varray>
  <varray name="stress" >
   <v>       0.30336437       0.00000000      -0.00000000 </v>
   <v>      -0.00000000       0.30336437       0.00000000 </v>
   <v>      -0.00000000       0.00000000       0.30336437 </v>
  </varray>
  <energy>
   <i name="e_fr_energy">     -8.66434596 </i>
   <i name="e_wo_entrp">     -8.66434596 </i>
   <i name="e_0_energy">     -0.00000000 </i>
  </energy>
  <time name="totalsc">    3.32    3.33</time>
 </calculation>
 <calculation>
  <scstep>
   <time name="dav">    0.37    0.37</time>
   <time name="total">    0.52    0.52</time>
   <energy>
    <i name="alphaZ">     88.22365706 </i>
    <i name="ewald">  -1567.53564282 </i>
    <i name="hartreedc">   -527.69545617 </i>
    <i name="XCdc">     35.26011226 </i>
    <i name="pawpsdc">   1904.06238663 </i>
    <i name="pawaedc">  -1834.55142096 </i>
    <i name="eentropy">     -0.00000000 </i>
    <i name="bandstr">   -362.07246842 </i>
    <i name="atom">   2255.64356714 </i>
    <i name="e_fr_energy">     -8.66526528 </i>
    <i name="e_wo_entrp">     -8.66526528 </i>
    <i name="e_0_energy">     -8.66526528 </i>
   </energy>
  </scstep>
  <scstep>
   <time name="dav">    0.44    0.44</time>
   <time name="total">    0.58    0.58</time>
   <energy>
    <i name="e_fr_energy">     -8.66459918 </i>
    <i name="e_wo_entrp">     -8.66459918 </i>
    <i name="e_0_energy">     -8.66459918 </i>
   </energy>
  </scstep>
  <scstep>
   <time name="dav">    0.46    0.46</time>
   <time name="total">    0.60    0.60</time>
   <energy>
    <i name="e_fr_energy">     -8.66437510 </i>
    <i name="e_wo_entrp">     -8.66437510 </i>
    <i name="e_0_energy">     -8.66437510 </i>
   </energy>
  </scstep>
  <scstep>
   <time name="dav">    0.42    0.42</time>
   <time name="total">    0.56    0.56</time>
   <energy>
    <i name="e_fr_energy">     -8.66437223 </i>
    <i name="e_wo_entrp">     -8.66437223 </i>
    <i name="e_0_energy">     -8.66437223 </i>
   </energy>
  </scstep>
  <scstep>
   <time name="dav">    0.34    0.34</time>
   <time name="total">    0.43    0.43</time>
   <energy>
    <i name="alphaZ">     88.22365706 </i>
    <i name="ewald">  -1567.53564282 </i>
    <i name="hartreedc">   -528.71431034 </i>
    <i name="XCdc">     35.31403475 </i>
    <i name="pawpsdc">   1903.26792341 </i>
    <i name="pawaedc">  -1833.75508050 </i>
    <i name="eentropy">     -0.00000000 </i>
    <i name="bandstr">   -361.10851890 </i>
    <i name="atom">   2255.64356714 </i>
    <i name="e_fr_energy">     -8.66437020 </i>
    <i name="e_wo_entrp">     -8.66437020 </i>
    <i name="e_0_energy">     -8.66437020 </i>
   </energy>
  </scstep>
  <structure>
   <crystal>
    <varray name="basis" >
     <v>       4.38076922      -4.38076922      -0.00000000 </v>
     <v>      -4.38076922       0.00000000      -4.38076922 </v>
     <v>       4.38076922       4.38076922       0.00000000 </v>
    </varray>
    <i name="volume">    168.14390134 </i>
    <varray name="rec_basis" >
     <v>       0.11413521      -0.11413521      -0.11413521 </v>
     <v>       0.00000000       0.00000000      -0.22827041 </v>
     <v>       0.11413521       0.11413521      -0.11413521 </v>
    </varray>
   </crystal>
   <varray name="positions" >
    <v>       0.50000046       0.00000000       0.50000046 </v>
    <v>       0.74999897       0.49999931       0.24999966 </v>
    <v>       0.24999966       0.49999931       0.74999897 </v>
    <v>       0.00000000       0.00000000       0.00000000 </v>
   </varray>
  </structure>
  <varray name="forces" >
   <v>      -0.00000000      -0.00000000      -0.00000000 </v>
   <v>       0.00000000       0.00000000       0.00000000 </v>
   <v>      -0.00000000      -0.00000000      -0.00000000 </v>
   <v>      -0.00000000      -0.00000000      -0.00000000 </v>
  </varray>
  <varray name="stress" >
   <v>      -0.05423082       0.00000000       0.00000000 </v>
   <v>       0.00000000      -0.05423082       0.00000000 </v>
   <v>      -0.00000000      -0.00000000      -0.05423082 </v>
  </varray>
  <energy>
   <i name="e_fr_energy">     -8.66437020 </i>
   <i name="e_wo_entrp">     -8.66437020 </i>
   <i name="e_0_energy">     -0.00000000 </i>
  </energy>
  <time name="totalsc">    3.34    3.35</time>
 </calculation>
 <calculation>
  <scstep>
   <time name="dav">    0.39    0.39</time>
   <time name="total">    0.53    0.54</time>
   <energy>
    <i name="alphaZ">     88.25421461 </i>
    <i name="ewald">  -1567.71660157 </i>
    <i name="hartreedc">   -528.76602385 </i>
    <i name="XCdc">     35.32328149 </i>
    <i name="pawpsdc">   1903.21368197 </i>
    <i name="pawaedc">  -1833.70517153 </i>
    <i name="eentropy">     -0.00000000 </i>
    <i name="bandstr">   -360.91134243 </i>
    <i name="atom">   2255.64356714 </i>
    <i name="e_fr_energy">     -8.66439416 </i>
    <i name="e_wo_entrp">     -8.66439416 </i>
    <i name="e_0_energy">     -8.66439416 </i>
   </energy>
  </scstep>
  <scstep>
   <time name="dav">    0.41    0.41</time>
   <time name="total">    0.55    0.55</time>
   <energy>
    <i name="e_fr_energy">     -8.66437480 </i>
    <i name="e_wo_entrp">     -8.66437480 </i>
    <i name="e_0_energy">     -8.66437480 </i>
   </energy>
  </scstep>
  <scstep>
   <time name="dav">    0.26    0.26</time>
   <time name="total">    0.40    0.40</time>
   <energy>
    <i name="e_fr_energy">     -8.66436788 </i>
    <i name="e_wo_entrp">     -8.66436788 </i>
    <i name="e_0_energy">     -8.66436788 </i>
   </energy>
  </scstep>
  <scstep>
   <time name="dav">    0.26    0.26</time>
   <time name="total">    0.40    0.40</time>
   <energy>
    <i name="e_fr_energy">     -8.66436877 </i>
    <i name="e_wo_entrp">     -8.66436877 </i>
    <i name="e_0_energy">     -8.66436877 </i>
   </energy>
  </scstep>
  <scstep>
   <time name="dav">    0.26    0.26</time>
   <time name="total">    0.35    0.35</time>
   <energy>
    <i name="alphaZ">     88.25421461 </i>
    <i name="ewald">  -1567.71660157 </i>
    <i name="hartreedc">   -528.59263589 </i>
    <i name="XCdc">     35.31433573 </i>
    <i name="pawpsdc">   1903.34005167 </i>
    <i name="pawaedc">  -1833.84336801 </i>
    <i name="eentropy">     -0.00000000 </i>
    <i name="bandstr">   -361.06393258 </i>
    <i name="atom">   2255.64356714 </i>
    <i name="e_fr_energy">     -8.66436888 </i>
    <i name="e_wo_entrp">     -8.66436888 </i>
    <i name="e_0_energy">     -8.66436888 </i>
   </energy>
  </scstep>
  <structure>
   <crystal>
    <varray name="basis" >
     <v>       4.38026355      -4.38026355      -0.00000000 </v>
     <v>      -4.38026355       0.00000000      -4.38026355 </v>
     <v>       4.38026355       4.38026355       0.00000000 </v>
    </varray>
    <i name="volume">    168.08568240 </i>
    <varray name="rec_basis" >
     <v>       0.11414838      -0.11414838      -0.11414838 </v>
     <v>       0.00000000       0.00000000      -0.22829677 </v>
     <v>       0.11414838       0.11414838      -0.11414838 </v>
    </varray>
   </crystal>
   <varray name="positions" >
    <v>       0.50000046       0.00000000       0.50000046 </v>
    <v>       0.74999897       0.49999931       0.24999966 </v>
    <v>       0.24999966       0.49999931       0.74999897 </v>
    <v>       0.00000000       0.00000000       0.00000000 </v>
   </varray>
  </structure>
  <varray name="forces" >
   <v>       0.00000000      -0.00000000      -0.00000000 </v>
   <v>       0.00000000       0.00000000       0.00000000 </v>
   <v>      -0.00000000      -0.00000000      -0.00000000 </v>
   <v>       0.00000000      -0.00000000      -0.00000000 </v>
  </varray>
  <varray name="stress" >
   <v>      -0.00562868      -0.00000000      -0.00000000 </v>
   <v>       0.00000000      -0.00562868      -0.00000000 </v>
   <v>       0.00000000       0.00000000      -0.00562868 </v>
  </varray>
  <energy>
   <i name="e_fr_energy">     -8.66436888 </i>
   <i name="e_wo_entrp">     -8.66436888 </i>
   <i name="e_0_energy">     -0.00000000 </i>
  </energy>
  <time name="totalsc">    2.81    2.82</time>
  <eigenvalues>
   <array>
    <dimension dim="1">band</dimension>
    <dimension dim="2">kpoint</dimension>
    <dimension dim="3">spin</dimension>
    <field>eigene</field>
    <field>occ</field>
    <set>
     <set comment="spin 1">
      <set comment="kpoint 1">
       <r>  -29.1484    1.0000 </r>
       <r>  -29.1373    1.0000 </r>
       <r>  -21.0867    1.0000 </r>
       <r>  -12.6877    1.0000 </r>
       <r>  -12.6877    1.0000 </r>
       <r>  -12.6877    1.0000 </r>
       <r>  -12.6318    1.0000 </r>
       <r>  -12.6318    1.0000 </r>
       <r>  -12.6318    1.0000 </r>
       <r>   -7.9371    1.0000 </r>
       <r>   -7.9371    1.0000 </r>
       <r>   -7.9371    1.0000 </r>
       <r>   -5.4216    1.0000 </r>
       <r>    1.7911    1.0000 </r>
       <r>    1.7911    1.0000 </r>
       <r>    1.7911    1.0000 </r>
       <r>    2.6388    0.0000 </r>
       <r>    3.9793    0.0000 </r>
       <r>    3.9793    0.0000 </r>
       <r>    4.4816    0.0000 </r>
      </set>
      <set comment="kpoint 2">
       <r>  -29.1480    1.0000 </r>
       <r>  -29.1377    1.0000 </r>
       <r>  -21.0869    1.0000 </r>
       <r>  -12.6876    1.0000 </r>
       <r>  -12.6860    1.0000 </r>
       <r>  -12.6860    1.0000 </r>
       <r>  -12.6342    1.0000 </r>
       <r>  -12.6342    1.0000 </r>
       <r>  -12.6325    1.0000 </r>
       <r>   -7.9470    1.0000 </r>
       <r>   -7.9359    1.0000 </r>
       <r>   -7.9359    1.0000 </r>
       <r>   -5.3901    1.0000 </r>
       <r>    1.4236    1.0000 </r>
       <r>    1.7217    1.0000 </r>
       <r>    1.7217    1.0000 </r>
       <r>    3.1467    0.0000 </r>
       <r>    4.1799    0.0000 </r>
       <r>    4.1799    0.0000 </r>
       <r>    4.4110    0.0000 </r>
      </set>
      <set comment="kpoint 3">
       <r>  -29.1467    1.0000 </r>
       <r>  -29.1389    1.0000 </r>
       <r>  -21.0873    1.0000 </r>
       <r>  -12.6851    1.0000 </r>
       <r>  -12.6809    1.0000 </r>
       <r>  -12.6809    1.0000 </r>
       <r>  -12.6410    1.0000 </r>
       <r>  -12.6410    1.0000 </r>
       <r>  -12.6369    1.0000 </r>
       <r>   -7.9681    1.0000 </r>
       <r>   -7.9329    1.0000 </r>
       <r>   -7.9329    1.0000 </r>
       <r>   -5.3189    1.0000 </r>
       <r>    0.9834    1.0000 </r>
       <r>    1.5840    1.0000 </r>
       <r>    1.5841    1.0000 </r>
       <r>    3.8179    0.0000 </r>
       <r>    4.5312    0.0000 </r>
       <r>    4.6703    0.0000 </r>
       <r>    4.6729    0.0000 </r>
      </set>
      <set comment="kpoint 4">
       <r>  -29.1449    1.0000 </r>
       <r>  -29.1406    1.0000 </r>
       <r>  -21.0877    1.0000 </r>
       <r>  -12.6776    1.0000 </r>
       <r>  -12.6729    1.0000 </r>
       <r>  -12.6729    1.0000 </r>
       <r>  -12.6506    1.0000 </r>
       <r>  -12.6506    1.0000 </r>
       <r>  -12.6464    1.0000 </r>
       <r>   -7.9857    1.0000 </r>
       <r>   -7.9300    1.0000 </r>
       <r>   -7.9299    1.0000 </r>
       <r>   -5.2536    1.0000 </r>
       <r>    0.7007    1.0000 </r>
       <r>    1.4738    1.0000 </r>
       <r>    1.4738    1.0000 </r>
       <r>    4.1649    0.0000 </r>
       <r>    4.8768    0.0000 </r>
       <r>    4.8768    0.0000 </r>
       <r>    5.1554    0.0000 </r>
      </set>
      <set comment="kpoint 5">
       <r>  -29.1427    1.0000 </r>
       <r>  -29.1427    1.0000 </r>
       <r>  -21.0879    1.0000 </r>
       <r>  -12.6704    1.0000 </r>
       <r>  -12.6654    1.0000 </r>
       <r>  -12.6654    1.0000 </r>
       <r>  -12.6589    1.0000 </r>
       <r>  -12.6589    1.0000 </r>
       <r>  -12.6545    1.0000 </r>
       <r>   -7.9921    1.0000 </r>
       <r>   -7.9287    1.0000 </r>
       <r>   -7.9287    1.0000 </r>
       <r>   -5.2282    1.0000 </r>
       <r>    0.6026    1.0000 </r>
       <r>    1.4337    1.0000 </r>
       <r>    1.4337    1.0000 </r>
       <r>    4.4553    0.0000 </r>
       <r>    4.9967    0.0000 </r>
       <r>    4.9967    0.0000 </r>
       <r>    5.1128    0.0000 </r>
      </set>
      <set comment="kpoint 6">
       <r>  -29.1479    1.0000 </r>
       <r>  -29.1378    1.0000 </r>
       <r>  -21.0869    1.0000 </r>
       <r>  -12.6912    1.0000 </r>
       <r>  -12.6912    1.0000 </r>
       <r>  -12.6766    1.0000 </r>
       <r>  -12.6427    1.0000 </r>
       <r>  -12.6298    1.0000 </r>
       <r>  -12.6298    1.0000 </r>
       <r>   -7.9499    1.0000 </r>
       <r>   -7.9354    1.0000 </r>
       <r>   -7.9354    1.0000 </r>
       <r>   -5.3820    1.0000 </r>
       <r>    1.2847    1.0000 </r>
       <r>    1.7753    1.0000 </r>
       <r>    1.7753    1.0000 </r>
       <r>    3.1582    0.0000 </r>
       <r>    4.0878    0.0000 </r>
       <r>    4.2258    0.0000 </r>
       <r>    4.4356    0.0000 </r>
      </set>
      <set comment="kpoint 7">
       <r>  -29.1469    1.0000 </r>
       <r>  -29.1387    1.0000 </r>
       <r>  -21.0873    1.0000 </r>
       <r>  -12.6927    1.0000 </r>
       <r>  -12.6922    1.0000 </r>
       <r>  -12.6655    1.0000 </r>
       <r>  -12.6543    1.0000 </r>
       <r>  -12.6304    1.0000 </r>
       <r>  -12.6299    1.0000 </r>
       <r>   -7.9648    1.0000 </r>
       <r>   -7.9340    1.0000 </r>
       <r>   -7.9330    1.0000 </r>
       <r>   -5.3304    1.0000 </r>
       <r>    0.9966    1.0000 </r>
       <r>    1.6438    1.0000 </r>
       <r>    1.7018    1.0000 </r>
       <r>    3.6556    0.0000 </r>
       <r>    4.0964    0.0000 </r>
       <r>    4.3773    0.0000 </r>
       <r>    4.7719    0.0000 </r>
      </set>
      <set comment="kpoint 8">
       <r>  -29.1454    1.0000 </r>
       <r>  -29.1401    1.0000 </r>
       <r>  -21.0877    1.0000 </r>
       <r>  -12.6895    1.0000 </r>
       <r>  -12.6885    1.0000 </r>
       <r>  -12.6675    1.0000 </r>
       <r>  -12.6533    1.0000 </r>
       <r>  -12.6358    1.0000 </r>
       <r>  -12.6358    1.0000 </r>
       <r>   -7.9791    1.0000 </r>
       <r>   -7.9335    1.0000 </r>
       <r>   -7.9300    1.0000 </r>
       <r>   -5.2711    1.0000 </r>
       <r>    0.7940    1.0000 </r>
       <r>    1.4648    1.0000 </r>
       <r>    1.5744    1.0000 </r>
       <r>    3.9758    0.0000 </r>
       <r>    4.5355    0.0000 </r>
       <r>    4.8748    0.0000 </r>
       <r>    5.0389    0.0000 </r>
      </set>
      <set comment="kpoint 9">
       <r>  -29.1434    1.0000 </r>
       <r>  -29.1420    1.0000 </r>
       <r>  -21.0879    1.0000 </r>
       <r>  -12.6864    1.0000 </r>
       <r>  -12.6803    1.0000 </r>
       <r>  -12.6738    1.0000 </r>
       <r>  -12.6468    1.0000 </r>
       <r>  -12.6447    1.0000 </r>
       <r>  -12.6416    1.0000 </r>
       <r>   -7.9856    1.0000 </r>
       <r>   -7.9339    1.0000 </r>
       <r>   -7.9283    1.0000 </r>
       <r>   -5.2372    1.0000 </r>
       <r>    0.6952    1.0000 </r>
       <r>    1.3890    1.0000 </r>
       <r>    1.4737    1.0000 </r>
       <r>    4.2978    0.0000 </r>
       <r>    4.9388    0.0000 </r>
       <r>    5.0028    0.0000 </r>
       <r>    5.0606    0.0000 </r>
      </set>
      <set comment="kpoint 10">
       <r>  -29.1440    1.0000 </r>
       <r>  -29.1414    1.0000 </r>
       <r>  -21.0879    1.0000 </r>
       <r>  -12.6930    1.0000 </r>
       <r>  -12.6688    1.0000 </r>
       <r>  -12.6662    1.0000 </r>
       <r>  -12.6574    1.0000 </r>
       <r>  -12.6555    1.0000 </r>
       <r>  -12.6322    1.0000 </r>
       <r>   -7.9836    1.0000 </r>
       <r>   -7.9345    1.0000 </r>
       <r>   -7.9287    1.0000 </r>
       <r>   -5.2431    1.0000 </r>
       <r>    0.7145    1.0000 </r>
       <r>    1.4377    1.0000 </r>
       <r>    1.4400    1.0000 </r>
       <r>    4.3054    0.0000 </r>
       <r>    4.8095    0.0000 </r>
       <r>    4.8466    0.0000 </r>
       <r>    5.1215    0.0000 </r>
      </set>
      <set comment="kpoint 11">
       <r>  -29.1459    1.0000 </r>
       <r>  -29.1396    1.0000 </r>
       <r>  -21.0876    1.0000 </r>
       <r>  -12.6964    1.0000 </r>
       <r>  -12.6738    1.0000 </r>
       <r>  -12.6674    1.0000 </r>
       <r>  -12.6552    1.0000 </r>
       <r>  -12.6489    1.0000 </r>
       <r>  -12.6272    1.0000 </r>
       <r>   -7.9738    1.0000 </r>
       <r>   -7.9350    1.0000 </r>
       <r>   -7.9312    1.0000 </r>
       <r>   -5.2869    1.0000 </r>
       <r>    0.8586    1.0000 </r>
       <r>    1.4793    1.0000 </r>
       <r>    1.5884    1.0000 </r>
       <r>    3.9901    0.0000 </r>
       <r>    4.4473    0.0000 </r>
       <r>    4.6513    0.0000 </r>
       <r>    4.8703    0.0000 </r>
      </set>
      <set comment="kpoint 12">
       <r>  -29.1473    1.0000 </r>
       <r>  -29.1384    1.0000 </r>
       <r>  -21.0871    1.0000 </r>
       <r>  -12.6939    1.0000 </r>
       <r>  -12.6818    1.0000 </r>
       <r>  -12.6777    1.0000 </r>
       <r>  -12.6432    1.0000 </r>
       <r>  -12.6392    1.0000 </r>
       <r>  -12.6279    1.0000 </r>
       <r>   -7.9587    1.0000 </r>
       <r>   -7.9352    1.0000 </r>
       <r>   -7.9341    1.0000 </r>
       <r>   -5.3483    1.0000 </r>
       <r>    1.1243    1.0000 </r>
       <r>    1.5902    1.0000 </r>
       <r>    1.7321    1.0000 </r>
       <r>    3.5447    0.0000 </r>
       <r>    4.2859    0.0000 </r>
       <r>    4.3958    0.0000 </r>
       <r>    4.5386    0.0000 </r>
      </set>
      <set comment="kpoint 13">
       <r>  -29.1465    1.0000 </r>
       <r>  -29.1391    1.0000 </r>
       <r>  -21.0875    1.0000 </r>
       <r>  -12.6993    1.0000 </r>
       <r>  -12.6993    1.0000 </r>
       <r>  -12.6691    1.0000 </r>
       <r>  -12.6495    1.0000 </r>
       <r>  -12.6251    1.0000 </r>
       <r>  -12.6251    1.0000 </r>
       <r>   -7.9727    1.0000 </r>
       <r>   -7.9313    1.0000 </r>
       <r>   -7.9313    1.0000 </r>
       <r>   -5.3133    1.0000 </r>
       <r>    0.8797    1.0000 </r>
       <r>    1.7440    1.0000 </r>
       <r>    1.7440    1.0000 </r>
       <r>    3.7053    0.0000 </r>
       <r>    3.7208    0.0000 </r>
       <r>    4.4107    0.0000 </r>
       <r>    4.9734    0.0000 </r>
      </set>
      <set comment="kpoint 14">
       <r>  -29.1454    1.0000 </r>
       <r>  -29.1400    1.0000 </r>
       <r>  -21.0878    1.0000 </r>
       <r>  -12.7013    1.0000 </r>
       <r>  -12.7007    1.0000 </r>
       <r>  -12.6824    1.0000 </r>
       <r>  -12.6357    1.0000 </r>
       <r>  -12.6258    1.0000 </r>
       <r>  -12.6253    1.0000 </r>
       <r>   -7.9795    1.0000 </r>
       <r>   -7.9321    1.0000 </r>
       <r>   -7.9289    1.0000 </r>
       <r>   -5.2826    1.0000 </r>
       <r>    0.8411    1.0000 </r>
       <r>    1.6004    1.0000 </r>
       <r>    1.6811    1.0000 </r>
       <r>    3.6331    0.0000 </r>
       <r>    4.1099    0.0000 </r>
       <r>    4.7656    0.0000 </r>
       <r>    5.1888    0.0000 </r>
      </set>
      <set comment="kpoint 15">
       <r>  -29.1440    1.0000 </r>
       <r>  -29.1414    1.0000 </r>
       <r>  -21.0881    1.0000 </r>
       <r>  -12.7030    1.0000 </r>
       <r>  -12.6959    1.0000 </r>
       <r>  -12.6859    1.0000 </r>
       <r>  -12.6338    1.0000 </r>
       <r>  -12.6308    1.0000 </r>
       <r>  -12.6250    1.0000 </r>
       <r>   -7.9771    1.0000 </r>
       <r>   -7.9396    1.0000 </r>
       <r>   -7.9272    1.0000 </r>
       <r>   -5.2573    1.0000 </r>
       <r>    0.8897    1.0000 </r>
       <r>    1.3651    1.0000 </r>
       <r>    1.5716    1.0000 </r>
       <r>    3.8525    0.0000 </r>
       <r>    4.5976    0.0000 </r>
       <r>    5.0635    0.0000 </r>
       <r>    5.0773    0.0000 </r>
      </set>
      <set comment="kpoint 16">
       <r>  -29.1430    1.0000 </r>
       <r>  -29.1424    1.0000 </r>
       <r>  -21.0881    1.0000 </r>
       <r>  -12.7068    1.0000 </r>
       <r>  -12.6854    1.0000 </r>
       <r>  -12.6760    1.0000 </r>
       <r>  -12.6470    1.0000 </r>
       <r>  -12.6406    1.0000 </r>
       <r>  -12.6192    1.0000 </r>
       <r>   -7.9699    1.0000 </r>
       <r>   -7.9482    1.0000 </r>
       <r>   -7.9271    1.0000 </r>
       <r>   -5.2475    1.0000 </r>
       <r>    0.9021    1.0000 </r>
       <r>    1.2920    1.0000 </r>
       <r>    1.4788    1.0000 </r>
       <r>    4.2755    0.0000 </r>
       <r>    4.5389    0.0000 </r>
       <r>    4.9294    0.0000 </r>
       <r>    5.0829    0.0000 </r>
      </set>
      <set comment="kpoint 17">
       <r>  -29.1446    1.0000 </r>
       <r>  -29.1409    1.0000 </r>
       <r>  -21.0879    1.0000 </r>
       <r>  -12.7050    1.0000 </r>
       <r>  -12.6710    1.0000 </r>
       <r>  -12.6621    1.0000 </r>
       <r>  -12.6615    1.0000 </r>
       <r>  -12.6533    1.0000 </r>
       <r>  -12.6198    1.0000 </r>
       <r>   -7.9721    1.0000 </r>
       <r>   -7.9435    1.0000 </r>
       <r>   -7.9288    1.0000 </r>
       <r>   -5.2579    1.0000 </r>
       <r>    0.8391    1.0000 </r>
       <r>    1.4416    1.0000 </r>
       <r>    1.4417    1.0000 </r>
       <r>    4.3040    0.0000 </r>
       <r>    4.5312    0.0000 </r>
       <r>    4.7419    0.0000 </r>
       <r>    4.7746    0.0000 </r>
      </set>
      <set comment="kpoint 18">
       <r>  -29.1451    1.0000 </r>
       <r>  -29.1403    1.0000 </r>
       <r>  -21.0881    1.0000 </r>
       <r>  -12.7073    1.0000 </r>
       <r>  -12.7073    1.0000 </r>
       <r>  -12.6953    1.0000 </r>
       <r>  -12.6222    1.0000 </r>
       <r>  -12.6205    1.0000 </r>
       <r>  -12.6205    1.0000 </r>
       <r>   -7.9853    1.0000 </r>
       <r>   -7.9273    1.0000 </r>
       <r>   -7.9273    1.0000 </r>
       <r>   -5.2835    1.0000 </r>
       <r>    0.8816    1.0000 </r>
       <r>    1.7204    1.0000 </r>
       <r>    1.7204    1.0000 </r>
       <r>    3.3105    0.0000 </r>
       <r>    4.0001    0.0000 </r>
       <r>    4.9381    0.0000 </r>
       <r>    5.2124    0.0000 </r>
      </set>
      <set comment="kpoint 19">
       <r>  -29.1444    1.0000 </r>
       <r>  -29.1410    1.0000 </r>
       <r>  -21.0882    1.0000 </r>
       <r>  -12.7110    1.0000 </r>
       <r>  -12.7067    1.0000 </r>
       <r>  -12.6983    1.0000 </r>
       <r>  -12.6229    1.0000 </r>
       <r>  -12.6218    1.0000 </r>
       <r>  -12.6144    1.0000 </r>
       <r>   -7.9829    1.0000 </r>
       <r>   -7.9313    1.0000 </r>
       <r>   -7.9261    1.0000 </r>
       <r>   -5.2756    1.0000 </r>
       <r>    0.9794    1.0000 </r>
       <r>    1.5531    1.0000 </r>
       <r>    1.6711    1.0000 </r>
       <r>    3.3889    0.0000 </r>
       <r>    4.0750    0.0000 </r>
       <r>    5.1795    0.0000 </r>
       <r>    5.2624    0.0000 </r>
      </set>
      <set comment="kpoint 20">
       <r>  -29.1434    1.0000 </r>
       <r>  -29.1419    1.0000 </r>
       <r>  -21.0882    1.0000 </r>
       <r>  -12.7130    1.0000 </r>
       <r>  -12.6989    1.0000 </r>
       <r>  -12.6891    1.0000 </r>
       <r>  -12.6330    1.0000 </r>
       <r>  -12.6288    1.0000 </r>
       <r>  -12.6132    1.0000 </r>
       <r>   -7.9706    1.0000 </r>
       <r>   -7.9456    1.0000 </r>
       <r>   -7.9260    1.0000 </r>
       <r>   -5.2616    1.0000 </r>
       <r>    1.1115    1.0000 </r>
       <r>    1.2258    1.0000 </r>
       <r>    1.5723    1.0000 </r>
       <r>    3.7692    0.0000 </r>
       <r>    4.3285    0.0000 </r>
       <r>    5.1318    0.0000 </r>
       <r>    5.3173    0.0000 </r>
      </set>
      <set comment="kpoint 21">
       <r>  -29.1445    1.0000 </r>
       <r>  -29.1408    1.0000 </r>
       <r>  -21.0883    1.0000 </r>
       <r>  -12.7105    1.0000 </r>
       <r>  -12.7105    1.0000 </r>
       <r>  -12.7061    1.0000 </r>
       <r>  -12.6187    1.0000 </r>
       <r>  -12.6187    1.0000 </r>
       <r>  -12.6108    1.0000 </r>
       <r>   -7.9877    1.0000 </r>
       <r>   -7.9256    1.0000 </r>
       <r>   -7.9256    1.0000 </r>
       <r>   -5.2828    1.0000 </r>
       <r>    0.9913    1.0000 </r>
       <r>    1.7126    1.0000 </r>
       <r>    1.7126    1.0000 </r>
       <r>    3.1587    0.0000 </r>
       <r>    3.8753    0.0000 </r>
       <r>    5.1810    0.0000 </r>
       <r>    5.5176    0.0000 </r>
      </set>
      <set comment="kpoint 22">
       <r>  -29.1459    1.0000 </r>
       <r>  -29.1396    1.0000 </r>
       <r>  -21.0876    1.0000 </r>
       <r>  -12.7010    1.0000 </r>
       <r>  -12.6873    1.0000 </r>
       <r>  -12.6684    1.0000 </r>
       <r>  -12.6516    1.0000 </r>
       <r>  -12.6373    1.0000 </r>
       <r>  -12.6235    1.0000 </r>
       <r>   -7.9735    1.0000 </r>
       <r>   -7.9348    1.0000 </r>
       <r>   -7.9309    1.0000 </r>
       <r>   -5.2912    1.0000 </r>
       <r>    0.8623    1.0000 </r>
       <r>    1.5521    1.0000 </r>
       <r>    1.6384    1.0000 </r>
       <r>    3.9784    0.0000 </r>
       <r>    3.9914    0.0000 </r>
       <r>    4.7110    0.0000 </r>
       <r>    4.8838    0.0000 </r>
      </set>
      <set comment="kpoint 23">
       <r>  -29.1444    1.0000 </r>
       <r>  -29.1410    1.0000 </r>
       <r>  -21.0879    1.0000 </r>
       <r>  -12.7040    1.0000 </r>
       <r>  -12.6818    1.0000 </r>
       <r>  -12.6768    1.0000 </r>
       <r>  -12.6489    1.0000 </r>
       <r>  -12.6388    1.0000 </r>
       <r>  -12.6229    1.0000 </r>
       <r>   -7.9761    1.0000 </r>
       <r>   -7.9394    1.0000 </r>
       <r>   -7.9288    1.0000 </r>
       <r>   -5.2572    1.0000 </r>
       <r>    0.8324    1.0000 </r>
       <r>    1.4192    1.0000 </r>
       <r>    1.5079    1.0000 </r>
       <r>    4.0913    0.0000 </r>
       <r>    4.5006    0.0000 </r>
       <r>    4.8561    0.0000 </r>
       <r>    5.1184    0.0000 </r>
      </set>
      <set comment="kpoint 24">
       <r>  -29.1427    1.0000 </r>
       <r>  -29.1427    1.0000 </r>
       <r>  -21.0881    1.0000 </r>
       <r>  -12.7036    1.0000 </r>
       <r>  -12.6875    1.0000 </r>
       <r>  -12.6661    1.0000 </r>
       <r>  -12.6606    1.0000 </r>
       <r>  -12.6293    1.0000 </r>
       <r>  -12.6278    1.0000 </r>
       <r>   -7.9755    1.0000 </r>
       <r>   -7.9425    1.0000 </r>
       <r>   -7.9279    1.0000 </r>
       <r>   -5.2446    1.0000 </r>
       <r>    0.8423    1.0000 </r>
       <r>    1.3324    1.0000 </r>
       <r>    1.4706    1.0000 </r>
       <r>    4.3857    0.0000 </r>
       <r>    4.4599    0.0000 </r>
       <r>    4.9944    0.0000 </r>
       <r>    5.1963    0.0000 </r>
      </set>
      <set comment="kpoint 25">
       <r>  -29.1445    1.0000 </r>
       <r>  -29.1409    1.0000 </r>
       <r>  -21.0881    1.0000 </r>
       <r>  -12.7108    1.0000 </r>
       <r>  -12.6944    1.0000 </r>
       <r>  -12.6921    1.0000 </r>
       <r>  -12.6338    1.0000 </r>
       <r>  -12.6237    1.0000 </r>
       <r>  -12.6192    1.0000 </r>
       <r>   -7.9789    1.0000 </r>
       <r>   -7.9345    1.0000 </r>
       <r>   -7.9283    1.0000 </r>
       <r>   -5.2700    1.0000 </r>
       <r>    0.9125    1.0000 </r>
       <r>    1.5536    1.0000 </r>
       <r>    1.5558    1.0000 </r>
       <r>    3.6670    0.0000 </r>
       <r>    4.2259    0.0000 </r>
       <r>    5.0215    0.0000 </r>
       <r>    5.2011    0.0000 </r>
      </set>
      <set comment="kpoint 26">
       <r>  -29.1434    1.0000 </r>
       <r>  -29.1420    1.0000 </r>
       <r>  -21.0882    1.0000 </r>
       <r>  -12.7156    1.0000 </r>
       <r>  -12.6950    1.0000 </r>
       <r>  -12.6813    1.0000 </r>
       <r>  -12.6472    1.0000 </r>
       <r>  -12.6201    1.0000 </r>
       <r>  -12.6166    1.0000 </r>
       <r>   -7.9687    1.0000 </r>
       <r>   -7.9459    1.0000 </r>
       <r>   -7.9281    1.0000 </r>
       <r>   -5.2594    1.0000 </r>
       <r>    1.0528    1.0000 </r>
       <r>    1.3027    1.0000 </r>
       <r>    1.4984    1.0000 </r>
       <r>    3.9666    0.0000 </r>
       <r>    4.3440    0.0000 </r>
       <r>    4.8562    0.0000 </r>
       <r>    5.2328    0.0000 </r>
      </set>
      <set comment="kpoint 27">
       <r>  -29.1432    1.0000 </r>
       <r>  -29.1421    1.0000 </r>
       <r>  -21.0882    1.0000 </r>
       <r>  -12.7135    1.0000 </r>
       <r>  -12.6907    1.0000 </r>
       <r>  -12.6650    1.0000 </r>
       <r>  -12.6631    1.0000 </r>
       <r>  -12.6271    1.0000 </r>
       <r>  -12.6162    1.0000 </r>
       <r>   -7.9634    1.0000 </r>
       <r>   -7.9524    1.0000 </r>
       <r>   -7.9281    1.0000 </r>
       <r>   -5.2538    1.0000 </r>
       <r>    1.0001    1.0000 </r>
       <r>    1.2898    1.0000 </r>
       <r>    1.4606    1.0000 </r>
       <r>    4.2953    0.0000 </r>
       <r>    4.4539    0.0000 </r>
       <r>    4.5751    0.0000 </r>
       <r>    5.3183    0.0000 </r>
      </set>
      <set comment="kpoint 28">
       <r>  -29.1440    1.0000 </r>
       <r>  -29.1414    1.0000 </r>
       <r>  -21.0883    1.0000 </r>
       <r>  -12.7174    1.0000 </r>
       <r>  -12.6993    1.0000 </r>
       <r>  -12.6973    1.0000 </r>
       <r>  -12.6324    1.0000 </r>
       <r>  -12.6175    1.0000 </r>
       <r>  -12.6119    1.0000 </r>
       <r>   -7.9783    1.0000 </r>
       <r>   -7.9345    1.0000 </r>
       <r>   -7.9277    1.0000 </r>
       <r>   -5.2718    1.0000 </r>
       <r>    1.0514    1.0000 </r>
       <r>    1.5198    1.0000 </r>
       <r>    1.5353    1.0000 </r>
       <r>    3.5520    0.0000 </r>
       <r>    4.0648    0.0000 </r>
       <r>    5.2059    0.0000 </r>
       <r>    5.2216    0.0000 </r>
      </set>
      <set comment="kpoint 29">
       <r>  -29.1427    1.0000 </r>
       <r>  -29.1427    1.0000 </r>
       <r>  -21.0883    1.0000 </r>
       <r>  -12.7210    1.0000 </r>
       <r>  -12.6958    1.0000 </r>
       <r>  -12.6651    1.0000 </r>
       <r>  -12.6651    1.0000 </r>
       <r>  -12.6152    1.0000 </r>
       <r>  -12.6143    1.0000 </r>
       <r>   -7.9561    1.0000 </r>
       <r>   -7.9561    1.0000 </r>
       <r>   -7.9297    1.0000 </r>
       <r>   -5.2607    1.0000 </r>
       <r>    1.2347    1.0000 </r>
       <r>    1.2347    1.0000 </r>
       <r>    1.3863    1.0000 </r>
       <r>    4.1970    0.0000 </r>
       <r>    4.3859    0.0000 </r>
       <r>    4.3859    0.0000 </r>
       <r>    5.2398    0.0000 </r>
      </set>
     </set>
    </set>
   </array>
  </eigenvalues>
  <separator name="orbital magnetization" >
   <v name="MAGDIPOLOUT">      0.00000000      0.00000000      0.00000000</v>
  </separator>
  <dos>
   <i name="efermi">      2.05532801 </i>
   <total>
    <array>
     <dimension dim="1">gridpoints</dimension>
     <dimension dim="2">spin</dimension>
     <field>energy</field>
     <field>total</field>
     <field>integrated</field>
     <set>
      <set comment="spin 1">
       <r>   -30.8818     0.0000     0.0000 </r>
       <r>   -30.7546     0.0000     0.0000 </r>
       <r>   -30.6275     0.0000     0.0000 </r>
       <r>   -30.5004     0.0000     0.0000 </r>
       <r>   -30.3733     0.0000     0.0000 </r>
       <r>   -30.2462     0.0000     0.0000 </r>
       <r>   -30.1191     0.0000     0.0000 </r>
       <r>   -29.9920     0.0000     0.0000 </r>
       <r>   -29.8649     0.0000     0.0000 </r>
       <r>   -29.7378     0.0000     0.0000 </r>
       <r>   -29.6107     0.0000     0.0000 </r>
       <r>   -29.4836     0.0000     0.0000 </r>
       <r>   -29.3564     0.0000     0.0000 </r>
       <r>   -29.2293     0.2280     0.0290 </r>
       <r>   -29.1022    27.2592     3.4939 </r>
       <r>   -28.9751     3.9819     4.0000 </r>
       <r>   -28.8480     0.0000     4.0000 </r>
       <r>   -28.7209     0.0000     4.0000 </r>
       <r>   -28.5938     0.0000     4.0000 </r>
       <r>   -28.4667     0.0000     4.0000 </r>
       <r>   -28.3396     0.0000     4.0000 </r>
       <r>   -28.2125     0.0000     4.0000 </r>
       <r>   -28.0854     0.0000     4.0000 </r>
       <r>   -27.9582     0.0000     4.0000 </r>
       <r>   -27.8311     0.0000     4.0000 </r>
       <r>   -27.7040     0.0000     4.0000 </r>
       <r>   -27.5769     0.0000     4.0000 </r>
       <r>   -27.4498     0.0000     4.0000 </r>
       <r>   -27.3227     0.0000     4.0000 </r>
       <r>   -27.1956     0.0000     4.0000 </r>
       <r>   -27.0685     0.0000     4.0000 </r>
       <r>   -26.9414     0.0000     4.0000 </r>
       <r>   -26.8143     0.0000     4.0000 </r>
       <r>   -26.6872     0.0000     4.0000 </r>
       <r>   -26.5601     0.0000     4.0000 </r>
       <r>   -26.4329     0.0000     4.0000 </r>
       <r>   -26.3058     0.0000     4.0000 </r>
       <r>   -26.1787     0.0000     4.0000 </r>
       <r>   -26.0516     0.0000     4.0000 </r>
       <r>   -25.9245     0.0000     4.0000 </r>
       <r>   -25.7974     0.0000     4.0000 </r>
       <r>   -25.6703     0.0000     4.0000 </r>
       <r>   -25.5432     0.0000     4.0000 </r>
       <r>   -25.4161     0.0000     4.0000 </r>
       <r>   -25.2890     0.0000     4.0000 </r>
       <r>   -25.1619     0.0000     4.0000 </r>
       <r>   -25.0347     0.0000     4.0000 </r>
       <r>   -24.9076     0.0000     4.0000 </r>
       <r>   -24.7805     0.0000     4.0000 </r>
       <r>   -24.6534     0.0000     4.0000 </r>
       <r>   -24.5263     0.0000     4.0000 </r>
       <r>   -24.3992     0.0000     4.0000 </r>
       <r>   -24.2721     0.0000     4.0000 </r>
       <r>   -24.1450     0.0000     4.0000 </r>
       <r>   -24.0179     0.0000     4.0000 </r>
       <r>   -23.8908     0.0000     4.0000 </r>
       <r>   -23.7637     0.0000     4.0000 </r>
       <r>   -23.6365     0.0000     4.0000 </r>
       <r>   -23.5094     0.0000     4.0000 </r>
       <r>   -23.3823     0.0000     4.0000 </r>
       <r>   -23.2552     0.0000     4.0000 </r>
       <r>   -23.1281     0.0000     4.0000 </r>
       <r>   -23.0010     0.0000     4.0000 </r>
       <r>   -22.8739     0.0000     4.0000 </r>
       <r>   -22.7468     0.0000     4.0000 </r>
       <r>   -22.6197     0.0000     4.0000 </r>
       <r>   -22.4926     0.0000     4.0000 </r>
       <r>   -22.3655     0.0000     4.0000 </r>
       <r>   -22.2384     0.0000     4.0000 </r>
       <r>   -22.1112     0.0000     4.0000 </r>
       <r>   -21.9841     0.0000     4.0000 </r>
       <r>   -21.8570     0.0000     4.0000 </r>
       <r>   -21.7299     0.0000     4.0000 </r>
       <r>   -21.6028     0.0000     4.0000 </r>
       <r>   -21.4757     0.0000     4.0000 </r>
       <r>   -21.3486     0.0000     4.0000 </r>
       <r>   -21.2215     0.0012     4.0002 </r>
       <r>   -21.0944     6.7213     4.8545 </r>
       <r>   -20.9673     9.0069     5.9994 </r>
       <r>   -20.8402     0.0051     6.0000 </r>
       <r>   -20.7130     0.0000     6.0000 </r>
       <r>   -20.5859     0.0000     6.0000 </r>
       <r>   -20.4588     0.0000     6.0000 </r>
       <r>   -20.3317     0.0000     6.0000 </r>
       <r>   -20.2046     0.0000     6.0000 </r>
       <r>   -20.0775     0.0000     6.0000 </r>
       <r>   -19.9504     0.0000     6.0000 </r>
       <r>   -19.8233     0.0000     6.0000 </r>
       <r>   -19.6962     0.0000     6.0000 </r>
       <r>   -19.5691     0.0000     6.0000 </r>
       <r>   -19.4420     0.0000     6.0000 </r>
       <r>   -19.3148     0.0000     6.0000 </r>
       <r>   -19.1877     0.0000     6.0000 </r>
       <r>   -19.0606     0.0000     6.0000 </r>
       <r>   -18.9335     0.0000     6.0000 </r>
       <r>   -18.8064     0.0000     6.0000 </r>
       <r>   -18.6793     0.0000     6.0000 </r>
       <r>   -18.5522     0.0000     6.0000 </r>
       <r>   -18.4251     0.0000     6.0000 </r>
       <r>   -18.2980     0.0000     6.0000 </r>
       <r>   -18.1709     0.0000     6.0000 </r>
       <r>   -18.0438     0.0000     6.0000 </r>
       <r>   -17.9166     0.0000     6.0000 </r>
       <r>   -17.7895     0.0000     6.0000 </r>
       <r>   -17.6624     0.0000     6.0000 </r>
       <r>   -17.5353     0.0000     6.0000 </r>
       <r>   -17.4082     0.0000     6.0000 </r>
       <r>   -17.2811     0.0000     6.0000 </r>
       <r>   -17.1540     0.0000     6.0000 </r>
       <r>   -17.0269     0.0000     6.0000 </r>
       <r>   -16.8998     0.0000     6.0000 </r>
       <r>   -16.7727     0.0000     6.0000 </r>
       <r>   -16.6456     0.0000     6.0000 </r>
       <r>   -16.5185     0.0000     6.0000 </r>
       <r>   -16.3913     0.0000     6.0000 </r>
       <r>   -16.2642     0.0000     6.0000 </r>
       <r>   -16.1371     0.0000     6.0000 </r>
       <r>   -16.0100     0.0000     6.0000 </r>
       <r>   -15.8829     0.0000     6.0000 </r>
       <r>   -15.7558     0.0000     6.0000 </r>
       <r>   -15.6287     0.0000     6.0000 </r>
       <r>   -15.5016     0.0000     6.0000 </r>
       <r>   -15.3745     0.0000     6.0000 </r>
       <r>   -15.2474     0.0000     6.0000 </r>
       <r>   -15.1203     0.0000     6.0000 </r>
       <r>   -14.9931     0.0000     6.0000 </r>
       <r>   -14.8660     0.0000     6.0000 </r>
       <r>   -14.7389     0.0000     6.0000 </r>
       <r>   -14.6118     0.0000     6.0000 </r>
       <r>   -14.4847     0.0000     6.0000 </r>
       <r>   -14.3576     0.0000     6.0000 </r>
       <r>   -14.2305     0.0000     6.0000 </r>
       <r>   -14.1034     0.0000     6.0000 </r>
       <r>   -13.9763     0.0000     6.0000 </r>
       <r>   -13.8492     0.0000     6.0000 </r>
       <r>   -13.7221     0.0000     6.0000 </r>
       <r>   -13.5949     0.0000     6.0000 </r>
       <r>   -13.4678     0.0000     6.0000 </r>
       <r>   -13.3407     0.0000     6.0000 </r>
       <r>   -13.2136     0.0000     6.0000 </r>
       <r>   -13.0865     0.0000     6.0000 </r>
       <r>   -12.9594     0.0000     6.0000 </r>
       <r>   -12.8323     0.0038     6.0005 </r>
       <r>   -12.7052    17.4588     8.2197 </r>
       <r>   -12.5781    73.7398    17.5926 </r>
       <r>   -12.4510     3.2048    18.0000 </r>
       <r>   -12.3239     0.0000    18.0000 </r>
       <r>   -12.1968     0.0000    18.0000 </r>
       <r>   -12.0696     0.0000    18.0000 </r>
       <r>   -11.9425     0.0000    18.0000 </r>
       <r>   -11.8154     0.0000    18.0000 </r>
       <r>   -11.6883     0.0000    18.0000 </r>
       <r>   -11.5612     0.0000    18.0000 </r>
       <r>   -11.4341     0.0000    18.0000 </r>
       <r>   -11.3070     0.0000    18.0000 </r>
       <r>   -11.1799     0.0000    18.0000 </r>
       <r>   -11.0528     0.0000    18.0000 </r>
       <r>   -10.9257     0.0000    18.0000 </r>
       <r>   -10.7986     0.0000    18.0000 </r>
       <r>   -10.6714     0.0000    18.0000 </r>
       <r>   -10.5443     0.0000    18.0000 </r>
       <r>   -10.4172     0.0000    18.0000 </r>
       <r>   -10.2901     0.0000    18.0000 </r>
       <r>   -10.1630     0.0000    18.0000 </r>
       <r>   -10.0359     0.0000    18.0000 </r>
       <r>    -9.9088     0.0000    18.0000 </r>
       <r>    -9.7817     0.0000    18.0000 </r>
       <r>    -9.6546     0.0000    18.0000 </r>
       <r>    -9.5275     0.0000    18.0000 </r>
       <r>    -9.4004     0.0000    18.0000 </r>
       <r>    -9.2732     0.0000    18.0000 </r>
       <r>    -9.1461     0.0000    18.0000 </r>
       <r>    -9.0190     0.0000    18.0000 </r>
       <r>    -8.8919     0.0000    18.0000 </r>
       <r>    -8.7648     0.0000    18.0000 </r>
       <r>    -8.6377     0.0000    18.0000 </r>
       <r>    -8.5106     0.0000    18.0000 </r>
       <r>    -8.3835     0.0000    18.0000 </r>
       <r>    -8.2564     0.0000    18.0000 </r>
       <r>    -8.1293     0.0001    18.0000 </r>
       <r>    -8.0022     4.3488    18.5528 </r>
       <r>    -7.8751    41.1862    23.7879 </r>
       <r>    -7.7479     1.6685    24.0000 </r>
       <r>    -7.6208     0.0000    24.0000 </r>
       <r>    -7.4937     0.0000    24.0000 </r>
       <r>    -7.3666     0.0000    24.0000 </r>
       <r>    -7.2395     0.0000    24.0000 </r>
       <r>    -7.1124     0.0000    24.0000 </r>
       <r>    -6.9853     0.0000    24.0000 </r>
       <r>    -6.8582     0.0000    24.0000 </r>
       <r>    -6.7311     0.0000    24.0000 </r>
       <r>    -6.6040     0.0000    24.0000 </r>
       <r>    -6.4769     0.0000    24.0000 </r>
       <r>    -6.3497     0.0000    24.0000 </r>
       <r>    -6.2226     0.0000    24.0000 </r>
       <r>    -6.0955     0.0000    24.0000 </r>
       <r>    -5.9684     0.0000    24.0000 </r>
       <r>    -5.8413     0.0000    24.0000 </r>
       <r>    -5.7142     0.0000    24.0000 </r>
       <r>    -5.5871     0.0000    24.0000 </r>
       <r>    -5.4600     0.0131    24.0017 </r>
       <r>    -5.3329     1.6146    24.2069 </r>
       <r>    -5.2058    13.1338    25.8763 </r>
       <r>    -5.0787     0.9731    26.0000 </r>
       <r>    -4.9515     0.0000    26.0000 </r>
       <r>    -4.8244     0.0000    26.0000 </r>
       <r>    -4.6973     0.0000    26.0000 </r>
       <r>    -4.5702     0.0000    26.0000 </r>
       <r>    -4.4431     0.0000    26.0000 </r>
       <r>    -4.3160     0.0000    26.0000 </r>
       <r>    -4.1889     0.0000    26.0000 </r>
       <r>    -4.0618     0.0000    26.0000 </r>
       <r>    -3.9347     0.0000    26.0000 </r>
       <r>    -3.8076     0.0000    26.0000 </r>
       <r>    -3.6805     0.0000    26.0000 </r>
       <r>    -3.5533     0.0000    26.0000 </r>
       <r>    -3.4262     0.0000    26.0000 </r>
       <r>    -3.2991     0.0000    26.0000 </r>
       <r>    -3.1720     0.0000    26.0000 </r>
       <r>    -3.0449     0.0000    26.0000 </r>
       <r>    -2.9178     0.0000    26.0000 </r>
       <r>    -2.7907     0.0000    26.0000 </r>
       <r>    -2.6636     0.0000    26.0000 </r>
       <r>    -2.5365     0.0000    26.0000 </r>
       <r>    -2.4094     0.0000    26.0000 </r>
       <r>    -2.2823     0.0000    26.0000 </r>
       <r>    -2.1552     0.0000    26.0000 </r>
       <r>    -2.0280     0.0000    26.0000 </r>
       <r>    -1.9009     0.0000    26.0000 </r>
       <r>    -1.7738     0.0000    26.0000 </r>
       <r>    -1.6467     0.0000    26.0000 </r>
       <r>    -1.5196     0.0000    26.0000 </r>
       <r>    -1.3925     0.0000    26.0000 </r>
       <r>    -1.2654     0.0000    26.0000 </r>
       <r>    -1.1383     0.0000    26.0000 </r>
       <r>    -1.0112     0.0000    26.0000 </r>
       <r>    -0.8841     0.0000    26.0000 </r>
       <r>    -0.7570     0.0000    26.0000 </r>
       <r>    -0.6298     0.0000    26.0000 </r>
       <r>    -0.5027     0.0000    26.0000 </r>
       <r>    -0.3756     0.0000    26.0000 </r>
       <r>    -0.2485     0.0000    26.0000 </r>
       <r>    -0.1214     0.0000    26.0000 </r>
       <r>     0.0057     0.0000    26.0000 </r>
       <r>     0.1328     0.0000    26.0000 </r>
       <r>     0.2599     0.0000    26.0000 </r>
       <r>     0.3870     0.0000    26.0000 </r>
       <r>     0.5141     0.0008    26.0001 </r>
       <r>     0.6412     0.1777    26.0227 </r>
       <r>     0.7684     1.8654    26.2598 </r>
       <r>     0.8955     6.1403    27.0403 </r>
       <r>     1.0226     4.1951    27.5735 </r>
       <r>     1.1497     2.5740    27.9007 </r>
       <r>     1.2768     1.7776    28.1267 </r>
       <r>     1.4039     5.3122    28.8019 </r>
       <r>     1.5310    11.9586    30.3219 </r>
       <r>     1.6581     8.7723    31.4370 </r>
       <r>     1.7852     4.1220    31.9609 </r>
       <r>     1.9123     0.3075    32.0000 </r>
       <r>     2.0394     0.0000    32.0000 </r>
       <r>     2.1665     0.0000    32.0000 </r>
       <r>     2.2937     0.0000    32.0000 </r>
       <r>     2.4208     0.0000    32.0000 </r>
       <r>     2.5479     0.0002    32.0000 </r>
       <r>     2.6750     0.0259    32.0033 </r>
       <r>     2.8021     0.0047    32.0039 </r>
       <r>     2.9292     0.0000    32.0039 </r>
       <r>     3.0563     0.0018    32.0041 </r>
       <r>     3.1834     0.4178    32.0573 </r>
       <r>     3.3105     0.2049    32.0833 </r>
       <r>     3.4376     0.7584    32.1797 </r>
       <r>     3.5647     0.5857    32.2541 </r>
       <r>     3.6919     2.2080    32.5348 </r>
       <r>     3.8190     1.1831    32.6852 </r>
       <r>     3.9461     1.7118    32.9028 </r>
       <r>     4.0732     5.1666    33.5595 </r>
       <r>     4.2003     3.7718    34.0389 </r>
       <r>     4.3274     4.7470    34.6423 </r>
       <r>     4.4545     5.7685    35.3755 </r>
       <r>     4.5816     5.5209    36.0773 </r>
       <r>     4.7087     2.6635    36.4159 </r>
       <r>     4.8358     4.5417    36.9931 </r>
       <r>     4.9629     6.8352    37.8620 </r>
       <r>     5.0901     5.8797    38.6093 </r>
       <r>     5.2172     6.7921    39.4727 </r>
       <r>     5.3443     3.7946    39.9550 </r>
       <r>     5.4714     0.2707    39.9894 </r>
       <r>     5.5985     0.0824    39.9999 </r>
       <r>     5.7256     0.0010    40.0000 </r>
       <r>     5.8527     0.0000    40.0000 </r>
       <r>     5.9798     0.0000    40.0000 </r>
       <r>     6.1069     0.0000    40.0000 </r>
       <r>     6.2340     0.0000    40.0000 </r>
       <r>     6.3611     0.0000    40.0000 </r>
       <r>     6.4882     0.0000    40.0000 </r>
       <r>     6.6154     0.0000    40.0000 </r>
       <r>     6.7425     0.0000    40.0000 </r>
       <r>     6.8696     0.0000    40.0000 </r>
       <r>     6.9967     0.0000    40.0000 </r>
       <r>     7.1238     0.0000    40.0000 </r>
       <r>     7.2509     0.0000    40.0000 </r>
      </set>
     </set>
    </array>
   </total>
  </dos>
 </calculation>
 <structure name="finalpos" >
  <crystal>
   <varray name="basis" >
    <v>       4.38026355      -4.38026355      -0.00000000 </v>
    <v>      -4.38026355       0.00000000      -4.38026355 </v>
    <v>       4.38026355       4.38026355       0.00000000 </v>
   </varray>
   <i name="volume">    168.08568240 </i>
   <varray name="rec_basis" >
    <v>       0.11414838      -0.11414838      -0.11414838 </v>
    <v>       0.00000000       0.00000000      -0.22829677 </v>
    <v>       0.11414838       0.11414838      -0.11414838 </v>
   </varray>
  </crystal>
  <varray name="positions" >
   <v>       0.50000046       0.00000000       0.50000046 </v>
   <v>       0.74999897       0.49999931       0.24999966 </v>
   <v>       0.24999966       0.49999931       0.74999897 </v>
   <v>       0.00000000       0.00000000       0.00000000 </v>
  </varray>
 </structure>
</modeling>
