unknown system                          
           1
     4.374066   -4.374066    0.000000
    -4.374066    0.000000   -4.374066
     4.374066    4.374066    0.000000
   Cs   K    Sb
   1   2   1
Direct configuration=     1
   0.50000046  0.00000000  0.50000046
   0.74999897  0.49999931  0.24999966
   0.24999966  0.49999931  0.74999897
   0.00000000  0.00000000  0.00000000
unknown system                          
           1
     4.377441   -4.377441   -0.000000
    -4.377441    0.000000   -4.377441
     4.377441    4.377441    0.000000
   Cs   K    Sb
   1   2   1
Direct configuration=     2
   0.50000046  0.00000000  0.50000046
   0.74999897  0.49999931  0.24999966
   0.24999966  0.49999931  0.74999897
   0.00000000  0.00000000  0.00000000
unknown system                          
           1
     4.380769   -4.380769   -0.000000
    -4.380769    0.000000   -4.380769
     4.380769    4.380769    0.000000
   Cs   K    Sb
   1   2   1
Direct configuration=     3
   0.50000046  0.00000000  0.50000046
   0.74999897  0.49999931  0.24999966
   0.24999966  0.49999931  0.74999897
   0.00000000  0.00000000  0.00000000
unknown system                          
           1
     4.380264   -4.380264   -0.000000
    -4.380264    0.000000   -4.380264
     4.380264    4.380264    0.000000
   Cs   K    Sb
   1   2   1
Direct configuration=     4
   0.50000046  0.00000000  0.50000046
   0.74999897  0.49999931  0.24999966
   0.24999966  0.49999931  0.74999897
   0.00000000  0.00000000  0.00000000
