   4   4   0   0
  0.4384855E+02  0.6283140E-09  0.6283140E-09  0.6283140E-09  0.5000000E-15
  1.000000000000000E-004
  CAR 
 unknown system                          
      7.18993015    -30.97428217  301      1.97050320      1.00000000
    -30.974  0.0000E+00  0.0000E+00
    -30.847  0.0000E+00  0.0000E+00
    -30.720  0.0000E+00  0.0000E+00
    -30.593  0.0000E+00  0.0000E+00
    -30.465  0.0000E+00  0.0000E+00
    -30.338  0.0000E+00  0.0000E+00
    -30.211  0.0000E+00  0.0000E+00
    -30.084  0.0000E+00  0.0000E+00
    -29.957  0.0000E+00  0.0000E+00
    -29.829  0.0000E+00  0.0000E+00
    -29.702  0.0000E+00  0.0000E+00
    -29.575  0.0000E+00  0.0000E+00
    -29.448  0.2985E-09  0.3798E-10
    -29.320  0.2491E-02  0.3168E-03
    -29.193  0.2746E+00  0.3525E-01
    -29.066  0.3735E-01  0.4000E-01
    -28.939  0.2827E-06  0.4000E-01
    -28.812  0.0000E+00  0.4000E-01
    -28.684  0.0000E+00  0.4000E-01
    -28.557  0.0000E+00  0.4000E-01
    -28.430  0.0000E+00  0.4000E-01
    -28.303  0.0000E+00  0.4000E-01
    -28.176  0.0000E+00  0.4000E-01
    -28.048  0.0000E+00  0.4000E-01
    -27.921  0.0000E+00  0.4000E-01
    -27.794  0.0000E+00  0.4000E-01
    -27.667  0.0000E+00  0.4000E-01
    -27.540  0.0000E+00  0.4000E-01
    -27.412  0.0000E+00  0.4000E-01
    -27.285  0.0000E+00  0.4000E-01
    -27.158  0.0000E+00  0.4000E-01
    -27.031  0.0000E+00  0.4000E-01
    -26.903  0.0000E+00  0.4000E-01
    -26.776  0.0000E+00  0.4000E-01
    -26.649  0.0000E+00  0.4000E-01
    -26.522  0.0000E+00  0.4000E-01
    -26.395  0.0000E+00  0.4000E-01
    -26.267  0.0000E+00  0.4000E-01
    -26.140  0.0000E+00  0.4000E-01
    -26.013  0.0000E+00  0.4000E-01
    -25.886  0.0000E+00  0.4000E-01
    -25.759  0.0000E+00  0.4000E-01
    -25.631  0.0000E+00  0.4000E-01
    -25.504  0.0000E+00  0.4000E-01
    -25.377  0.0000E+00  0.4000E-01
    -25.250  0.0000E+00  0.4000E-01
    -25.122  0.0000E+00  0.4000E-01
    -24.995  0.0000E+00  0.4000E-01
    -24.868  0.0000E+00  0.4000E-01
    -24.741  0.0000E+00  0.4000E-01
    -24.614  0.0000E+00  0.4000E-01
    -24.486  0.0000E+00  0.4000E-01
    -24.359  0.0000E+00  0.4000E-01
    -24.232  0.0000E+00  0.4000E-01
    -24.105  0.0000E+00  0.4000E-01
    -23.978  0.0000E+00  0.4000E-01
    -23.850  0.0000E+00  0.4000E-01
    -23.723  0.0000E+00  0.4000E-01
    -23.596  0.0000E+00  0.4000E-01
    -23.469  0.0000E+00  0.4000E-01
    -23.341  0.0000E+00  0.4000E-01
    -23.214  0.0000E+00  0.4000E-01
    -23.087  0.0000E+00  0.4000E-01
    -22.960  0.0000E+00  0.4000E-01
    -22.833  0.0000E+00  0.4000E-01
    -22.705  0.0000E+00  0.4000E-01
    -22.578  0.0000E+00  0.4000E-01
    -22.451  0.0000E+00  0.4000E-01
    -22.324  0.0000E+00  0.4000E-01
    -22.197  0.0000E+00  0.4000E-01
    -22.069  0.0000E+00  0.4000E-01
    -21.942  0.0000E+00  0.4000E-01
    -21.815  0.0000E+00  0.4000E-01
    -21.688  0.0000E+00  0.4000E-01
    -21.560  0.0000E+00  0.4000E-01
    -21.433  0.0000E+00  0.4000E-01
    -21.306  0.8220E-07  0.4000E-01
    -21.179  0.1563E-01  0.4199E-01
    -21.052  0.1400E+00  0.5979E-01
    -20.924  0.1628E-02  0.6000E-01
    -20.797  0.2667E-09  0.6000E-01
    -20.670  0.0000E+00  0.6000E-01
    -20.543  0.0000E+00  0.6000E-01
    -20.416  0.0000E+00  0.6000E-01
    -20.288  0.0000E+00  0.6000E-01
    -20.161  0.0000E+00  0.6000E-01
    -20.034  0.0000E+00  0.6000E-01
    -19.907  0.0000E+00  0.6000E-01
    -19.779  0.0000E+00  0.6000E-01
    -19.652  0.0000E+00  0.6000E-01
    -19.525  0.0000E+00  0.6000E-01
    -19.398  0.0000E+00  0.6000E-01
    -19.271  0.1874E-07  0.6000E-01
    -19.143  0.2434E-01  0.6310E-01
    -19.016  0.7286E+00  0.1558E+00
    -18.889  0.3317E-01  0.1600E+00
    -18.762  0.4122E-07  0.1600E+00
    -18.635  0.0000E+00  0.1600E+00
    -18.507  0.0000E+00  0.1600E+00
    -18.380  0.0000E+00  0.1600E+00
    -18.253  0.0000E+00  0.1600E+00
    -18.126  0.0000E+00  0.1600E+00
    -17.998  0.0000E+00  0.1600E+00
    -17.871  0.0000E+00  0.1600E+00
    -17.744  0.0000E+00  0.1600E+00
    -17.617  0.0000E+00  0.1600E+00
    -17.490  0.0000E+00  0.1600E+00
    -17.362  0.0000E+00  0.1600E+00
    -17.235  0.0000E+00  0.1600E+00
    -17.108  0.0000E+00  0.1600E+00
    -16.981  0.0000E+00  0.1600E+00
    -16.854  0.0000E+00  0.1600E+00
    -16.726  0.0000E+00  0.1600E+00
    -16.599  0.0000E+00  0.1600E+00
    -16.472  0.0000E+00  0.1600E+00
    -16.345  0.0000E+00  0.1600E+00
    -16.217  0.0000E+00  0.1600E+00
    -16.090  0.0000E+00  0.1600E+00
    -15.963  0.0000E+00  0.1600E+00
    -15.836  0.0000E+00  0.1600E+00
    -15.709  0.0000E+00  0.1600E+00
    -15.581  0.0000E+00  0.1600E+00
    -15.454  0.0000E+00  0.1600E+00
    -15.327  0.0000E+00  0.1600E+00
    -15.200  0.0000E+00  0.1600E+00
    -15.073  0.0000E+00  0.1600E+00
    -14.945  0.0000E+00  0.1600E+00
    -14.818  0.0000E+00  0.1600E+00
    -14.691  0.0000E+00  0.1600E+00
    -14.564  0.0000E+00  0.1600E+00
    -14.436  0.0000E+00  0.1600E+00
    -14.309  0.0000E+00  0.1600E+00
    -14.182  0.0000E+00  0.1600E+00
    -14.055  0.0000E+00  0.1600E+00
    -13.928  0.0000E+00  0.1600E+00
    -13.800  0.0000E+00  0.1600E+00
    -13.673  0.0000E+00  0.1600E+00
    -13.546  0.0000E+00  0.1600E+00
    -13.419  0.0000E+00  0.1600E+00
    -13.292  0.0000E+00  0.1600E+00
    -13.164  0.0000E+00  0.1600E+00
    -13.037  0.2002E-12  0.1600E+00
    -12.910  0.5350E-04  0.1600E+00
    -12.783  0.2145E+00  0.1873E+00
    -12.655  0.7154E+00  0.2783E+00
    -12.528  0.1336E-01  0.2800E+00
    -12.401  0.1499E-07  0.2800E+00
    -12.274  0.0000E+00  0.2800E+00
    -12.147  0.0000E+00  0.2800E+00
    -12.019  0.0000E+00  0.2800E+00
    -11.892  0.0000E+00  0.2800E+00
    -11.765  0.0000E+00  0.2800E+00
    -11.638  0.0000E+00  0.2800E+00
    -11.511  0.0000E+00  0.2800E+00
    -11.383  0.0000E+00  0.2800E+00
    -11.256  0.0000E+00  0.2800E+00
    -11.129  0.0000E+00  0.2800E+00
    -11.002  0.0000E+00  0.2800E+00
    -10.874  0.0000E+00  0.2800E+00
    -10.747  0.0000E+00  0.2800E+00
    -10.620  0.0000E+00  0.2800E+00
    -10.493  0.0000E+00  0.2800E+00
    -10.366  0.0000E+00  0.2800E+00
    -10.238  0.0000E+00  0.2800E+00
    -10.111  0.0000E+00  0.2800E+00
     -9.984  0.0000E+00  0.2800E+00
     -9.857  0.0000E+00  0.2800E+00
     -9.730  0.0000E+00  0.2800E+00
     -9.602  0.0000E+00  0.2800E+00
     -9.475  0.0000E+00  0.2800E+00
     -9.348  0.0000E+00  0.2800E+00
     -9.221  0.0000E+00  0.2800E+00
     -9.093  0.0000E+00  0.2800E+00
     -8.966  0.0000E+00  0.2800E+00
     -8.839  0.0000E+00  0.2800E+00
     -8.712  0.0000E+00  0.2800E+00
     -8.585  0.0000E+00  0.2800E+00
     -8.457  0.0000E+00  0.2800E+00
     -8.330  0.1771E-15  0.2800E+00
     -8.203  0.5426E-06  0.2800E+00
     -8.076  0.2167E-01  0.2828E+00
     -7.949  0.3902E+00  0.3324E+00
     -7.821  0.5976E-01  0.3400E+00
     -7.694  0.1250E-05  0.3400E+00
     -7.567  0.0000E+00  0.3400E+00
     -7.440  0.0000E+00  0.3400E+00
     -7.312  0.1122E-13  0.3400E+00
     -7.185  0.8704E-06  0.3400E+00
     -7.058  0.4365E-02  0.3406E+00
     -6.931  0.1280E+00  0.3568E+00
     -6.804  0.2485E-01  0.3600E+00
     -6.676  0.1683E-05  0.3600E+00
     -6.549  0.1824E-14  0.3600E+00
     -6.422  0.0000E+00  0.3600E+00
     -6.295  0.0000E+00  0.3600E+00
     -6.168  0.0000E+00  0.3600E+00
     -6.040  0.0000E+00  0.3600E+00
     -5.913  0.0000E+00  0.3600E+00
     -5.786  0.0000E+00  0.3600E+00
     -5.659  0.0000E+00  0.3600E+00
     -5.531  0.0000E+00  0.3600E+00
     -5.404  0.0000E+00  0.3600E+00
     -5.277  0.0000E+00  0.3600E+00
     -5.150  0.0000E+00  0.3600E+00
     -5.023  0.0000E+00  0.3600E+00
     -4.895  0.0000E+00  0.3600E+00
     -4.768  0.0000E+00  0.3600E+00
     -4.641  0.0000E+00  0.3600E+00
     -4.514  0.0000E+00  0.3600E+00
     -4.387  0.0000E+00  0.3600E+00
     -4.259  0.0000E+00  0.3600E+00
     -4.132  0.0000E+00  0.3600E+00
     -4.005  0.0000E+00  0.3600E+00
     -3.878  0.0000E+00  0.3600E+00
     -3.750  0.0000E+00  0.3600E+00
     -3.623  0.0000E+00  0.3600E+00
     -3.496  0.0000E+00  0.3600E+00
     -3.369  0.0000E+00  0.3600E+00
     -3.242  0.0000E+00  0.3600E+00
     -3.114  0.0000E+00  0.3600E+00
     -2.987  0.0000E+00  0.3600E+00
     -2.860  0.0000E+00  0.3600E+00
     -2.733  0.0000E+00  0.3600E+00
     -2.606  0.0000E+00  0.3600E+00
     -2.478  0.0000E+00  0.3600E+00
     -2.351  0.0000E+00  0.3600E+00
     -2.224  0.0000E+00  0.3600E+00
     -2.097  0.0000E+00  0.3600E+00
     -1.969  0.0000E+00  0.3600E+00
     -1.842  0.0000E+00  0.3600E+00
     -1.715  0.0000E+00  0.3600E+00
     -1.588  0.0000E+00  0.3600E+00
     -1.461  0.0000E+00  0.3600E+00
     -1.333  0.0000E+00  0.3600E+00
     -1.206  0.0000E+00  0.3600E+00
     -1.079  0.0000E+00  0.3600E+00
     -0.952  0.0000E+00  0.3600E+00
     -0.825  0.0000E+00  0.3600E+00
     -0.697  0.0000E+00  0.3600E+00
     -0.570  0.0000E+00  0.3600E+00
     -0.443  0.0000E+00  0.3600E+00
     -0.316  0.0000E+00  0.3600E+00
     -0.188  0.0000E+00  0.3600E+00
     -0.061  0.0000E+00  0.3600E+00
      0.066  0.0000E+00  0.3600E+00
      0.193  0.0000E+00  0.3600E+00
      0.320  0.2190E-14  0.3600E+00
      0.448  0.4870E-06  0.3600E+00
      0.575  0.8600E-03  0.3601E+00
      0.702  0.1603E-01  0.3621E+00
      0.829  0.5135E-01  0.3687E+00
      0.956  0.4813E-01  0.3748E+00
      1.084  0.3189E-01  0.3789E+00
      1.211  0.9000E-02  0.3800E+00
      1.338  0.4037E-01  0.3851E+00
      1.465  0.6539E-01  0.3935E+00
      1.593  0.1253E+00  0.4094E+00
      1.720  0.6162E-01  0.4172E+00
      1.847  0.2131E-01  0.4199E+00
      1.974  0.4121E-03  0.4200E+00
      2.101  0.1007E-03  0.4200E+00
      2.229  0.2062E-03  0.4200E+00
      2.356  0.2488E-06  0.4200E+00
      2.483  0.2626E-14  0.4200E+00
      2.610  0.2848E-06  0.4200E+00
      2.737  0.1606E-02  0.4202E+00
      2.865  0.2689E-02  0.4206E+00
      2.992  0.4892E-05  0.4206E+00
      3.119  0.1003E-02  0.4207E+00
      3.246  0.5718E-02  0.4214E+00
      3.374  0.1537E-01  0.4234E+00
      3.501  0.7007E-02  0.4243E+00
      3.628  0.1671E-01  0.4264E+00
      3.755  0.3316E-01  0.4306E+00
      3.882  0.3150E-01  0.4346E+00
      4.010  0.4648E-01  0.4406E+00
      4.137  0.3038E-01  0.4444E+00
      4.264  0.4147E-01  0.4497E+00
      4.391  0.7288E-01  0.4590E+00
      4.518  0.2736E-01  0.4624E+00
      4.646  0.3255E-01  0.4666E+00
      4.773  0.8500E-01  0.4774E+00
      4.900  0.7026E-01  0.4863E+00
      5.027  0.7242E-01  0.4956E+00
      5.155  0.2877E-01  0.4992E+00
      5.282  0.5275E-02  0.4999E+00
      5.409  0.9460E-04  0.4999E+00
      5.536  0.8232E-03  0.5000E+00
      5.663  0.1015E-04  0.5000E+00
      5.791  0.1802E-11  0.5000E+00
      5.918  0.0000E+00  0.5000E+00
      6.045  0.0000E+00  0.5000E+00
      6.172  0.0000E+00  0.5000E+00
      6.299  0.0000E+00  0.5000E+00
      6.427  0.0000E+00  0.5000E+00
      6.554  0.0000E+00  0.5000E+00
      6.681  0.0000E+00  0.5000E+00
      6.808  0.0000E+00  0.5000E+00
      6.936  0.0000E+00  0.5000E+00
      7.063  0.0000E+00  0.5000E+00
      7.190  0.0000E+00  0.5000E+00
