    4    4  100    1
  0.4384855E+02  0.6283140E-09  0.6283140E-09  0.6283140E-09  0.5000000E-15
  1.000000000000000E-004
  CAR 
 unknown system                          
     42     29     25
 
  0.0000000E+00  0.0000000E+00  0.0000000E+00  0.1953125E-02
    1      -29.239545   1.000000
    2      -29.230858   1.000000
    3      -21.132585   1.000000
    4      -19.079121   1.000000
    5      -19.079119   1.000000
    6      -19.079119   1.000000
    7      -19.074877   1.000000
    8      -19.074877   1.000000
    9      -12.770229   1.000000
   10      -12.770229   1.000000
   11      -12.770228   1.000000
   12      -12.723708   1.000000
   13      -12.723708   1.000000
   14      -12.723708   1.000000
   15       -7.982057   1.000000
   16       -7.982057   1.000000
   17       -7.982053   1.000000
   18       -7.081985   1.000000
   19        1.813838   0.999995
   20        1.813846   0.999995
   21        1.813846   0.999995
   22        2.117135   0.000017
   23        3.969259   0.000000
   24        3.969259   0.000000
   25        4.364825   0.000000
 
  0.1250000E+00  0.0000000E+00  0.0000000E+00  0.1562500E-01
    1      -29.239196   1.000000
    2      -29.231176   1.000000
    3      -21.132707   1.000000
    4      -19.079112   1.000000
    5      -19.079110   1.000000
    6      -19.079059   1.000000
    7      -19.074897   1.000000
    8      -19.074897   1.000000
    9      -12.770192   1.000000
   10      -12.768796   1.000000
   11      -12.768796   1.000000
   12      -12.725726   1.000000
   13      -12.725726   1.000000
   14      -12.724771   1.000000
   15       -7.999351   1.000000
   16       -7.981068   1.000000
   17       -7.981065   1.000000
   18       -7.053607   1.000000
   19        1.331705   1.000000
   20        1.744879   1.000000
   21        1.744885   1.000000
   22        2.741047   0.000000
   23        4.159696   0.000000
   24        4.159696   0.000000
   25        4.302754   0.000000
 
  0.2500000E+00  0.0000000E+00  0.0000000E+00  0.1562500E-01
    1      -29.238211   1.000000
    2      -29.232087   1.000000
    3      -21.132968   1.000000
    4      -19.079060   1.000000
    5      -19.079058   1.000000
    6      -19.078910   1.000000
    7      -19.074904   1.000000
    8      -19.074904   1.000000
    9      -12.768353   1.000000
   10      -12.764497   1.000000
   11      -12.764497   1.000000
   12      -12.731378   1.000000
   13      -12.731378   1.000000
   14      -12.729118   1.000000
   15       -8.033501   1.000000
   16       -7.978687   1.000000
   17       -7.978683   1.000000
   18       -6.993938   1.000000
   19        0.906879   1.000000
   20        1.607222   1.000000
   21        1.607228   1.000000
   22        3.432874   0.000000
   23        4.408631   0.000000
   24        4.558766   0.000000
   25        4.558780   0.000000
 
  0.3750000E+00  0.0000000E+00  0.0000000E+00  0.1562500E-01
    1      -29.236768   1.000000
    2      -29.233460   1.000000
    3      -21.133217   1.000000
    4      -19.079001   1.000000
    5      -19.079000   1.000000
    6      -19.078758   1.000000
    7      -19.074893   1.000000
    8      -19.074893   1.000000
    9      -12.762833   1.000000
   10      -12.757740   1.000000
   11      -12.757740   1.000000
   12      -12.739479   1.000000
   13      -12.739479   1.000000
   14      -12.737313   1.000000
   15       -8.059334   1.000000
   16       -7.976310   1.000000
   17       -7.976307   1.000000
   18       -6.944254   1.000000
   19        0.652340   1.000000
   20        1.496181   1.000000
   21        1.496187   1.000000
   22        3.825907   0.000000
   23        4.767787   0.000000
   24        4.767788   0.000000
   25        4.958358   0.000000
 
  0.5000000E+00  0.0000000E+00  0.0000000E+00  0.7812500E-02
    1      -29.235103   1.000000
    2      -29.235094   1.000000
    3      -21.133339   1.000000
    4      -19.079004   1.000000
    5      -19.079002   1.000000
    6      -19.078714   1.000000
    7      -19.074910   1.000000
    8      -19.074910   1.000000
    9      -12.757442   1.000000
   10      -12.750797   1.000000
   11      -12.750797   1.000000
   12      -12.746991   1.000000
   13      -12.746991   1.000000
   14      -12.743887   1.000000
   15       -8.068097   1.000000
   16       -7.975331   1.000000
   17       -7.975327   1.000000
   18       -6.926078   1.000000
   19        0.566211   1.000000
   20        1.455620   1.000000
   21        1.455626   1.000000
   22        4.053272   0.000000
   23        4.889344   0.000000
   24        4.889345   0.000000
   25        4.968631   0.000000
 
  0.1250000E+00  0.1250000E+00  0.0000000E+00  0.1171875E-01
    1      -29.239096   1.000000
    2      -29.231270   1.000000
    3      -21.132748   1.000000
    4      -19.079095   1.000000
    5      -19.079094   1.000000
    6      -19.079067   1.000000
    7      -19.074909   1.000000
    8      -19.074882   1.000000
    9      -12.773072   1.000000
   10      -12.773072   1.000000
   11      -12.761043   1.000000
   12      -12.733347   1.000000
   13      -12.722059   1.000000
   14      -12.722059   1.000000
   15       -8.002878   1.000000
   16       -7.980946   1.000000
   17       -7.980943   1.000000
   18       -7.047203   1.000000
   19        1.214124   1.000000
   20        1.792248   1.000000
   21        1.792253   1.000000
   22        2.760269   0.000000
   23        4.072681   0.000000
   24        4.116231   0.000000
   25        4.386814   0.000000
 
  0.2500000E+00  0.1250000E+00  0.0000000E+00  0.4687500E-01
    1      -29.238370   1.000000
    2      -29.231934   1.000000
    3      -21.132961   1.000000
    4      -19.079050   1.000000
    5      -19.079042   1.000000
    6      -19.078954   1.000000
    7      -19.074905   1.000000
    8      -19.074870   1.000000
    9      -12.774474   1.000000
   10      -12.773870   1.000000
   11      -12.751860   1.000000
   12      -12.743426   1.000000
   13      -12.722639   1.000000
   14      -12.722450   1.000000
   15       -8.025989   1.000000
   16       -7.979816   1.000000
   17       -7.979174   1.000000
   18       -7.005574   1.000000
   19        0.934112   1.000000
   20        1.655748   1.000000
   21        1.715799   1.000000
   22        3.285660   0.000000
   23        3.995213   0.000000
   24        4.346459   0.000000
   25        4.664706   0.000000
 
  0.3750000E+00  0.1250000E+00  0.0000000E+00  0.4687500E-01
    1      -29.237151   1.000000
    2      -29.233080   1.000000
    3      -21.133217   1.000000
    4      -19.078991   1.000000
    5      -19.078981   1.000000
    6      -19.078794   1.000000
    7      -19.074882   1.000000
    8      -19.074872   1.000000
    9      -12.772378   1.000000
   10      -12.770760   1.000000
   11      -12.754334   1.000000
   12      -12.741830   1.000000
   13      -12.727572   1.000000
   14      -12.727098   1.000000
   15       -8.047354   1.000000
   16       -7.979379   1.000000
   17       -7.976806   1.000000
   18       -6.961557   1.000000
   19        0.744857   1.000000
   20        1.478042   1.000000
   21        1.589431   1.000000
   22        3.716045   0.000000
   23        4.337452   0.000000
   24        4.806376   0.000000
   25        4.921994   0.000000
 
  0.5000000E+00  0.1250000E+00  0.0000000E+00  0.4687500E-01
    1      -29.235641   1.000000
    2      -29.234543   1.000000
    3      -21.133381   1.000000
    4      -19.078965   1.000000
    5      -19.078958   1.000000
    6      -19.078709   1.000000
    7      -19.074883   1.000000
    8      -19.074873   1.000000
    9      -12.770701   1.000000
   10      -12.763882   1.000000
   11      -12.759200   1.000000
   12      -12.736853   1.000000
   13      -12.734500   1.000000
   14      -12.732169   1.000000
   15       -8.057070   1.000000
   16       -7.979820   1.000000
   17       -7.975223   1.000000
   18       -6.937847   1.000000
   19        0.656856   1.000000
   20        1.399666   1.000000
   21        1.491901   1.000000
   22        4.025835   0.000000
   23        4.706124   0.000000
   24        4.898036   0.000000
   25        4.901970   0.000000
 
 -0.3750000E+00  0.1250000E+00  0.0000000E+00  0.4687500E-01
    1      -29.236117   1.000000
    2      -29.234078   1.000000
    3      -21.133340   1.000000
    4      -19.078986   1.000000
    5      -19.078949   1.000000
    6      -19.078724   1.000000
    7      -19.074891   1.000000
    8      -19.074864   1.000000
    9      -12.775588   1.000000
   10      -12.754249   1.000000
   11      -12.752963   1.000000
   12      -12.745977   1.000000
   13      -12.743520   1.000000
   14      -12.724277   1.000000
   15       -8.055268   1.000000
   16       -7.980579   1.000000
   17       -7.975344   1.000000
   18       -6.941269   1.000000
   19        0.673731   1.000000
   20        1.445318   1.000000
   21        1.460293   1.000000
   22        4.005814   0.000000
   23        4.690176   0.000000
   24        4.735303   0.000000
   25        4.922012   0.000000
 
 -0.2500000E+00  0.1250000E+00  0.0000000E+00  0.4687500E-01
    1      -29.237561   1.000000
    2      -29.232691   1.000000
    3      -21.133129   1.000000
    4      -19.079035   1.000000
    5      -19.078984   1.000000
    6      -19.078844   1.000000
    7      -19.074907   1.000000
    8      -19.074866   1.000000
    9      -12.777836   1.000000
   10      -12.758747   1.000000
   11      -12.753215   1.000000
   12      -12.743172   1.000000
   13      -12.739316   1.000000
   14      -12.720012   1.000000
   15       -8.041874   1.000000
   16       -7.981021   1.000000
   17       -7.977101   1.000000
   18       -6.971549   1.000000
   19        0.801041   1.000000
   20        1.505781   1.000000
   21        1.590905   1.000000
   22        3.673040   0.000000
   23        4.348856   0.000000
   24        4.538414   0.000000
   25        4.725205   0.000000
 
 -0.1250000E+00  0.1250000E+00  0.0000000E+00  0.2343750E-01
    1      -29.238650   1.000000
    2      -29.231676   1.000000
    3      -21.132869   1.000000
    4      -19.079089   1.000000
    5      -19.079051   1.000000
    6      -19.078989   1.000000
    7      -19.074917   1.000000
    8      -19.074878   1.000000
    9      -12.775416   1.000000
   10      -12.765311   1.000000
   11      -12.761858   1.000000
   12      -12.733191   1.000000
   13      -12.730802   1.000000
   14      -12.720536   1.000000
   15       -8.018654   1.000000
   16       -7.981014   1.000000
   17       -7.979472   1.000000
   18       -7.018513   1.000000
   19        1.044817   1.000000
   20        1.617421   1.000000
   21        1.741358   1.000000
   22        3.166911   0.000000
   23        4.189798   0.000000
   24        4.336196   0.000000
   25        4.423879   0.000000
 
  0.2500000E+00  0.2500000E+00  0.0000000E+00  0.1171875E-01
    1      -29.238015   1.000000
    2      -29.232254   1.000000
    3      -21.133120   1.000000
    4      -19.078994   1.000000
    5      -19.078993   1.000000
    6      -19.078929   1.000000
    7      -19.074878   1.000000
    8      -19.074862   1.000000
    9      -12.779783   1.000000
   10      -12.779783   1.000000
   11      -12.756523   1.000000
   12      -12.738676   1.000000
   13      -12.718159   1.000000
   14      -12.718159   1.000000
   15       -8.030477   1.000000
   16       -7.978286   1.000000
   17       -7.978283   1.000000
   18       -6.997938   1.000000
   19        0.837380   1.000000
   20        1.749330   1.000000
   21        1.749335   1.000000
   22        3.353967   0.000000
   23        3.631159   0.000000
   24        4.381031   0.000000
   25        4.869328   0.000000
 
  0.3750000E+00  0.2500000E+00  0.0000000E+00  0.4687500E-01
    1      -29.237204   1.000000
    2      -29.233000   1.000000
    3      -21.133349   1.000000
    4      -19.078936   1.000000
    5      -19.078934   1.000000
    6      -19.078822   1.000000
    7      -19.074845   1.000000
    8      -19.074844   1.000000
    9      -12.781819   1.000000
   10      -12.780974   1.000000
   11      -12.767843   1.000000
   12      -12.727249   1.000000
   13      -12.718829   1.000000
   14      -12.718336   1.000000
   15       -8.035846   1.000000
   16       -7.979618   1.000000
   17       -7.976539   1.000000
   18       -6.980901   1.000000
   19        0.803775   1.000000
   20        1.596844   1.000000
   21        1.684942   1.000000
   22        3.531685   0.000000
   23        3.812240   0.000000
   24        4.714791   0.000000
   25        5.040665   0.000000
 
  0.5000000E+00  0.2500000E+00  0.0000000E+00  0.4687500E-01
    1      -29.236088   1.000000
    2      -29.234068   1.000000
    3      -21.133513   1.000000
    4      -19.078911   1.000000
    5      -19.078882   1.000000
    6      -19.078738   1.000000
    7      -19.074850   1.000000
    8      -19.074818   1.000000
    9      -12.784768   1.000000
   10      -12.776927   1.000000
   11      -12.769793   1.000000
   12      -12.725572   1.000000
   13      -12.722892   1.000000
   14      -12.718348   1.000000
   15       -8.034065   1.000000
   16       -7.987146   1.000000
   17       -7.974966   1.000000
   18       -6.965514   1.000000
   19        0.851006   1.000000
   20        1.355262   1.000000
   21        1.580259   1.000000
   22        3.729602   0.000000
   23        4.429399   0.000000
   24        4.718388   0.000000
   25        4.965312   0.000000
 
 -0.3750000E+00  0.2500000E+00  0.0000000E+00  0.4687500E-01
    1      -29.235308   1.000000
    2      -29.234846   1.000000
    3      -21.133519   1.000000
    4      -19.078935   1.000000
    5      -19.078853   1.000000
    6      -19.078739   1.000000
    7      -19.074876   1.000000
    8      -19.074814   1.000000
    9      -12.787955   1.000000
   10      -12.768176   1.000000
   11      -12.761704   1.000000
   12      -12.736506   1.000000
   13      -12.731008   1.000000
   14      -12.713497   1.000000
   15       -8.032703   1.000000
   16       -7.993370   1.000000
   17       -7.974480   1.000000
   18       -6.955969   1.000000
   19        0.865837   1.000000
   20        1.272636   1.000000
   21        1.495155   1.000000
   22        4.132529   0.000000
   23        4.332212   0.000000
   24        4.817483   0.000000
   25        5.013072   0.000000
 
 -0.2500000E+00  0.2500000E+00  0.0000000E+00  0.2343750E-01
    1      -29.236540   1.000000
    2      -29.233657   1.000000
    3      -21.133356   1.000000
    4      -19.078985   1.000000
    5      -19.078890   1.000000
    6      -19.078781   1.000000
    7      -19.074891   1.000000
    8      -19.074836   1.000000
    9      -12.785706   1.000000
   10      -12.756213   1.000000
   11      -12.750475   1.000000
   12      -12.748487   1.000000
   13      -12.741547   1.000000
   14      -12.713884   1.000000
   15       -8.039595   1.000000
   16       -7.988498   1.000000
   17       -7.975363   1.000000
   18       -6.956587   1.000000
   19        0.798104   1.000000
   20        1.423137   1.000000
   21        1.465008   1.000000
   22        4.055028   0.000000
   23        4.463324   0.000000
   24        4.577218   0.000000
   25        4.629453   0.000000
 
  0.3750000E+00  0.3750000E+00  0.0000000E+00  0.1171875E-01
    1      -29.236926   1.000000
    2      -29.233236   1.000000
    3      -21.133524   1.000000
    4      -19.078883   1.000000
    5      -19.078882   1.000000
    6      -19.078781   1.000000
    7      -19.074825   1.000000
    8      -19.074793   1.000000
    9      -12.786422   1.000000
   10      -12.786422   1.000000
   11      -12.779610   1.000000
   12      -12.716136   1.000000
   13      -12.714296   1.000000
   14      -12.714296   1.000000
   15       -8.031440   1.000000
   16       -7.975667   1.000000
   17       -7.975664   1.000000
   18       -6.992963   1.000000
   19        0.845499   1.000000
   20        1.716891   1.000000
   21        1.716896   1.000000
   22        3.240532   0.000000
   23        3.721260   0.000000
   24        4.878145   0.000000
   25        4.886188   0.000000
 
  0.5000000E+00  0.3750000E+00  0.0000000E+00  0.4687500E-01
    1      -29.236380   1.000000
    2      -29.233755   1.000000
    3      -21.133651   1.000000
    4      -19.078868   1.000000
    5      -19.078836   1.000000
    6      -19.078741   1.000000
    7      -19.074824   1.000000
    8      -19.074771   1.000000
    9      -12.791278   1.000000
   10      -12.785947   1.000000
   11      -12.780735   1.000000
   12      -12.716303   1.000000
   13      -12.715332   1.000000
   14      -12.709681   1.000000
   15       -8.023858   1.000000
   16       -7.981679   1.000000
   17       -7.974704   1.000000
   18       -6.992488   1.000000
   19        0.939694   1.000000
   20        1.537601   1.000000
   21        1.669186   1.000000
   22        3.319513   0.000000
   23        3.877532   0.000000
   24        4.788945   0.000000
   25        5.171553   0.000000
 
 -0.3750000E+00  0.3750000E+00  0.0000000E+00  0.2343750E-01
    1      -29.235647   1.000000
    2      -29.234478   1.000000
    3      -21.133644   1.000000
    4      -19.078881   1.000000
    5      -19.078779   1.000000
    6      -19.078764   1.000000
    7      -19.074840   1.000000
    8      -19.074772   1.000000
    9      -12.793558   1.000000
   10      -12.779469   1.000000
   11      -12.772522   1.000000
   12      -12.724673   1.000000
   13      -12.721167   1.000000
   14      -12.708572   1.000000
   15       -8.010702   1.000000
   16       -8.002330   1.000000
   17       -7.974216   1.000000
   18       -6.977837   1.000000
   19        1.075301   1.000000
   20        1.197598   1.000000
   21        1.578765   1.000000
   22        3.665349   0.000000
   23        4.214975   0.000000
   24        4.870317   0.000000
   25        5.018648   0.000000
 
  0.5000000E+00  0.5000000E+00  0.0000000E+00  0.5859375E-02
    1      -29.236476   1.000000
    2      -29.233645   1.000000
    3      -21.133705   1.000000
    4      -19.078842   1.000000
    5      -19.078841   1.000000
    6      -19.078721   1.000000
    7      -19.074806   1.000000
    8      -19.074734   1.000000
    9      -12.789165   1.000000
   10      -12.789165   1.000000
   11      -12.789141   1.000000
   12      -12.712709   1.000000
   13      -12.712709   1.000000
   14      -12.706757   1.000000
   15       -8.024401   1.000000
   16       -7.974596   1.000000
   17       -7.974593   1.000000
   18       -7.003549   1.000000
   19        0.947754   1.000000
   20        1.705997   1.000000
   21        1.706002   1.000000
   22        3.096604   0.000000
   23        3.667460   0.000000
   24        4.792264   0.000000
   25        5.455193   0.000000
 
  0.3750000E+00  0.2500000E+00  0.1250000E+00  0.4687500E-01
    1      -29.237580   1.000000
    2      -29.232664   1.000000
    3      -21.133182   1.000000
    4      -19.079008   1.000000
    5      -19.078957   1.000000
    6      -19.078866   1.000000
    7      -19.074892   1.000000
    8      -19.074857   1.000000
    9      -12.781538   1.000000
   10      -12.769856   1.000000
   11      -12.755486   1.000000
   12      -12.740351   1.000000
   13      -12.728615   1.000000
   14      -12.716896   1.000000
   15       -8.036721   1.000000
   16       -7.981237   1.000000
   17       -7.977536   1.000000
   18       -6.979170   1.000000
   19        0.815216   1.000000
   20        1.567825   1.000000
   21        1.633922   1.000000
   22        3.663855   0.000000
   23        3.895454   0.000000
   24        4.625071   0.000000
   25        4.779275   0.000000
 
  0.5000000E+00  0.2500000E+00  0.1250000E+00  0.9375000E-01
    1      -29.236419   1.000000
    2      -29.233766   1.000000
    3      -21.133404   1.000000
    4      -19.078953   1.000000
    5      -19.078903   1.000000
    6      -19.078763   1.000000
    7      -19.074876   1.000000
    8      -19.074836   1.000000
    9      -12.784743   1.000000
   10      -12.766442   1.000000
   11      -12.761250   1.000000
   12      -12.738269   1.000000
   13      -12.729739   1.000000
   14      -12.716436   1.000000
   15       -8.040253   1.000000
   16       -7.984999   1.000000
   17       -7.976364   1.000000
   18       -6.958746   1.000000
   19        0.792686   1.000000
   20        1.417214   1.000000
   21        1.515091   1.000000
   22        3.926630   0.000000
   23        4.324117   0.000000
   24        4.654677   0.000000
   25        5.002467   0.000000
 
 -0.3750000E+00  0.2500000E+00  0.1250000E+00  0.4687500E-01
    1      -29.235083   1.000000
    2      -29.235077   1.000000
    3      -21.133501   1.000000
    4      -19.078931   1.000000
    5      -19.078888   1.000000
    6      -19.078726   1.000000
    7      -19.074877   1.000000
    8      -19.074829   1.000000
    9      -12.785026   1.000000
   10      -12.770929   1.000000
   11      -12.752118   1.000000
   12      -12.748160   1.000000
   13      -12.721863   1.000000
   14      -12.720542   1.000000
   15       -8.039809   1.000000
   16       -7.987272   1.000000
   17       -7.975947   1.000000
   18       -6.951834   1.000000
   19        0.804536   1.000000
   20        1.324291   1.000000
   21        1.484014   1.000000
   22        4.176559   0.000000
   23        4.328377   0.000000
   24        4.887392   0.000000
   25        4.900188   0.000000
 
  0.5000000E+00  0.3750000E+00  0.1250000E+00  0.4687500E-01
    1      -29.236507   1.000000
    2      -29.233652   1.000000
    3      -21.133533   1.000000
    4      -19.078896   1.000000
    5      -19.078868   1.000000
    6      -19.078775   1.000000
    7      -19.074848   1.000000
    8      -19.074799   1.000000
    9      -12.790383   1.000000
   10      -12.775920   1.000000
   11      -12.775702   1.000000
   12      -12.725404   1.000000
   13      -12.717328   1.000000
   14      -12.713245   1.000000
   15       -8.029313   1.000000
   16       -7.981540   1.000000
   17       -7.978312   1.000000
   18       -6.979331   1.000000
   19        0.876058   1.000000
   20        1.539965   1.000000
   21        1.555689   1.000000
   22        3.599262   0.000000
   23        3.989314   0.000000
   24        4.769031   0.000000
   25        5.039700   0.000000
 
 -0.3750000E+00  0.3750000E+00  0.1250000E+00  0.9375000E-01
    1      -29.235611   1.000000
    2      -29.234523   1.000000
    3      -21.133625   1.000000
    4      -19.078879   1.000000
    5      -19.078814   1.000000
    6      -19.078749   1.000000
    7      -19.074856   1.000000
    8      -19.074780   1.000000
    9      -12.795182   1.000000
   10      -12.777695   1.000000
   11      -12.764977   1.000000
   12      -12.736508   1.000000
   13      -12.714102   1.000000
   14      -12.711316   1.000000
   15       -8.016895   1.000000
   16       -7.993732   1.000000
   17       -7.978821   1.000000
   18       -6.974248   1.000000
   19        1.016573   1.000000
   20        1.280634   1.000000
   21        1.498323   1.000000
   22        3.867108   0.000000
   23        4.224949   0.000000
   24        4.684987   0.000000
   25        4.910036   0.000000
 
 -0.2500000E+00  0.3750000E+00  0.1250000E+00  0.4687500E-01
    1      -29.235494   1.000000
    2      -29.234653   1.000000
    3      -21.133572   1.000000
    4      -19.078910   1.000000
    5      -19.078818   1.000000
    6      -19.078760   1.000000
    7      -19.074865   1.000000
    8      -19.074793   1.000000
    9      -12.793344   1.000000
   10      -12.773945   1.000000
   11      -12.751548   1.000000
   12      -12.749628   1.000000
   13      -12.719969   1.000000
   14      -12.710898   1.000000
   15       -8.021429   1.000000
   16       -7.995957   1.000000
   17       -7.977476   1.000000
   18       -6.965386   1.000000
   19        0.966433   1.000000
   20        1.262798   1.000000
   21        1.469196   1.000000
   22        4.167335   0.000000
   23        4.373859   0.000000
   24        4.379603   0.000000
   25        5.052082   0.000000
 
 -0.3750000E+00  0.5000000E+00  0.1250000E+00  0.2343750E-01
    1      -29.236062   1.000000
    2      -29.234060   1.000000
    3      -21.133686   1.000000
    4      -19.078849   1.000000
    5      -19.078817   1.000000
    6      -19.078735   1.000000
    7      -19.074826   1.000000
    8      -19.074753   1.000000
    9      -12.796661   1.000000
   10      -12.781720   1.000000
   11      -12.778124   1.000000
   12      -12.724043   1.000000
   13      -12.711876   1.000000
   14      -12.707597   1.000000
   15       -8.016906   1.000000
   16       -7.981693   1.000000
   17       -7.981424   1.000000
   18       -6.990886   1.000000
   19        1.011814   1.000000
   20        1.503333   1.000000
   21        1.524990   1.000000
   22        3.490534   0.000000
   23        3.899248   0.000000
   24        4.817416   0.000000
   25        5.098535   0.000000
 
 -0.2500000E+00  0.5000000E+00  0.2500000E+00  0.1171875E-01
    1      -29.235063   1.000000
    2      -29.235059   1.000000
    3      -21.133668   1.000000
    4      -19.078842   1.000000
    5      -19.078773   1.000000
    6      -19.078771   1.000000
    7      -19.074850   1.000000
    8      -19.074757   1.000000
    9      -12.799789   1.000000
   10      -12.778660   1.000000
   11      -12.751241   1.000000
   12      -12.751240   1.000000
   13      -12.710365   1.000000
   14      -12.709123   1.000000
   15       -7.999106   1.000000
   16       -7.999103   1.000000
   17       -7.988104   1.000000
   18       -6.978358   1.000000
   19        1.205152   1.000000
   20        1.205159   1.000000
   21        1.376400   1.000000
   22        4.069913   0.000000
   23        4.309076   0.000000
   24        4.309081   0.000000
   25        4.840037   0.000000
