       N       E                     dE             d eps       ncg     rms          rms(c)
DAV:   1     0.394123210864E+03    0.39412E+03   -0.19741E+04  1450   0.156E+03
DAV:   2     0.259315603547E+02   -0.36819E+03   -0.36271E+03  1676   0.414E+02
DAV:   3    -0.774641823030E+01   -0.33678E+02   -0.33620E+02  1953   0.132E+02
DAV:   4    -0.913306690705E+01   -0.13866E+01   -0.13851E+01  2316   0.242E+01
DAV:   5    -0.917490223923E+01   -0.41835E-01   -0.41831E-01  2147   0.326E+00    0.454E+00
DAV:   6    -0.843232971828E+01    0.74257E+00   -0.17651E+00  1758   0.378E+00    0.348E+00
DAV:   7    -0.830387216594E+01    0.12846E+00   -0.87131E-01  1956   0.336E+00    0.185E+00
DAV:   8    -0.831509530698E+01   -0.11223E-01   -0.12775E-01  1859   0.207E+00    0.237E-01
DAV:   9    -0.831447348202E+01    0.62182E-03   -0.17938E-02  1958   0.564E-01    0.151E-01
DAV:  10    -0.831476528635E+01   -0.29180E-03   -0.22532E-03  1894   0.254E-01    0.385E-02
DAV:  11    -0.831478873140E+01   -0.23445E-04   -0.31995E-04  1902   0.125E-01    0.121E-02
DAV:  12    -0.831478595637E+01    0.27750E-05   -0.42734E-05  1765   0.448E-02
   1 F= -.83147860E+01 E0= -.83147860E+01  d E =-.831479E+01
       N       E                     dE             d eps       ncg     rms          rms(c)
DAV:   1    -0.832660608494E+01   -0.11817E-01   -0.30336E-01  1531   0.548E+00    0.613E-01
DAV:   2    -0.831762622579E+01    0.89799E-02   -0.22119E-02  1850   0.140E+00    0.246E-01
DAV:   3    -0.831544124971E+01    0.21850E-02   -0.64657E-03  1760   0.728E-01    0.158E-01
DAV:   4    -0.831546872661E+01   -0.27477E-04   -0.94998E-04  2312   0.109E-01    0.666E-02
DAV:   5    -0.831547506624E+01   -0.63396E-05   -0.22824E-04  1700   0.874E-02    0.909E-03
DAV:   6    -0.831546883136E+01    0.62349E-05   -0.27616E-05  1356   0.338E-02
   2 F= -.83154688E+01 E0= -.83154688E+01  d E =-.682875E-03
       N       E                     dE             d eps       ncg     rms          rms(c)
DAV:   1    -0.837441211636E+01   -0.58937E-01   -0.16097E+00  1480   0.127E+01    0.143E+00
DAV:   2    -0.832707146037E+01    0.47341E-01   -0.11656E-01  1801   0.321E+00    0.569E-01
DAV:   3    -0.831538560132E+01    0.11686E-01   -0.33339E-02  1714   0.166E+00    0.372E-01
DAV:   4    -0.831554037171E+01   -0.15477E-03   -0.52327E-03  2262   0.243E-01    0.155E-01
DAV:   5    -0.831561299088E+01   -0.72619E-04   -0.14054E-03  1992   0.213E-01    0.191E-02
DAV:   6    -0.831558334060E+01    0.29650E-04   -0.18786E-04  1504   0.773E-02    0.156E-02
DAV:   7    -0.831557958555E+01    0.37551E-05   -0.19501E-05  1339   0.243E-02
   3 F= -.83155796E+01 E0= -.83155796E+01  d E =-.793629E-03
       N       E                     dE             d eps       ncg     rms          rms(c)
DAV:   1    -0.832247991422E+01   -0.68966E-02   -0.18140E-01  1483   0.420E+00    0.469E-01
DAV:   2    -0.831701374448E+01    0.54662E-02   -0.13451E-02  1801   0.108E+00    0.191E-01
DAV:   3    -0.831569513028E+01    0.13186E-02   -0.39937E-03  1726   0.571E-01    0.120E-01
DAV:   4    -0.831573827705E+01   -0.43147E-04   -0.54679E-04  2161   0.857E-02    0.535E-02
DAV:   5    -0.831575966855E+01   -0.21392E-04   -0.11782E-04  1580   0.625E-02    0.112E-02
DAV:   6    -0.831576204097E+01   -0.23724E-05   -0.13789E-05  1090   0.245E-02
   4 F= -.83157620E+01 E0= -.83157620E+01  d E =-.976085E-03
       N       E                     dE             d eps       ncg     rms          rms(c)
DAV:   1    -0.832632865594E+01   -0.10569E-01   -0.28739E-01  1479   0.530E+00    0.589E-01
DAV:   2    -0.831765684089E+01    0.86718E-02   -0.21137E-02  1777   0.136E+00    0.240E-01
DAV:   3    -0.831557228259E+01    0.20846E-02   -0.64056E-03  1723   0.722E-01    0.151E-01
DAV:   4    -0.831563903607E+01   -0.66753E-04   -0.85033E-04  2306   0.110E-01    0.688E-02
DAV:   5    -0.831567066925E+01   -0.31633E-04   -0.18714E-04  1590   0.789E-02    0.141E-02
DAV:   6    -0.831567341041E+01   -0.27412E-05   -0.22751E-05  1238   0.309E-02
   5 F= -.83156734E+01 E0= -.83156734E+01  d E =-.887454E-03
       N       E                     dE             d eps       ncg     rms          rms(c)
DAV:   1    -0.831797044386E+01   -0.22998E-02   -0.60288E-02  1482   0.244E+00    0.273E-01
DAV:   2    -0.831620525561E+01    0.17652E-02   -0.44546E-03  1826   0.625E-01    0.111E-01
DAV:   3    -0.831576600071E+01    0.43925E-03   -0.12857E-03  1725   0.325E-01    0.707E-02
DAV:   4    -0.831576699093E+01   -0.99023E-06   -0.19011E-04  1810   0.485E-02    0.304E-02
DAV:   5    -0.831576500317E+01    0.19878E-05   -0.45533E-05  1418   0.420E-02
   6 F= -.83157650E+01 E0= -.83157650E+01  d E =-.979047E-03
