 vasp.5.4.4.18Apr17-6-g9f103f2a35 (build Jun 23 2019 17:35:09) complex          
  
 executed on             LinuxIFC date 2020.01.14  23:14:44
 running on   28 total cores
 distrk:  each k-point on    7 cores,    4 groups
 distr:  one band on NCORES_PER_BAND=   7 cores,    1 groups


--------------------------------------------------------------------------------------------------------


 INCAR:
 POTCAR:    PAW_PBE Bi_d 06Sep2000                
 POTCAR:    PAW_PBE Cs_sv 08Apr2002               
 POTCAR:    PAW_PBE K_sv 06Sep2000                

 ----------------------------------------------------------------------------- 
|                                                                             |
|           W    W    AA    RRRRR   N    N  II  N    N   GGGG   !!!           |
|           W    W   A  A   R    R  NN   N  II  NN   N  G    G  !!!           |
|           W    W  A    A  R    R  N N  N  II  N N  N  G       !!!           |
|           W WW W  AAAAAA  RRRRR   N  N N  II  N  N N  G  GGG   !            |
|           WW  WW  A    A  R   R   N   NN  II  N   NN  G    G                |
|           W    W  A    A  R    R  N    N  II  N    N   GGGG   !!!           |
|                                                                             |
|      You have enabled k-point parallelism (KPAR>1).                         |
|      This developmental code was originally  written by Paul Kent at ORNL,  |
|      and carefully double checked in Vienna.                                |
|      GW as well as linear response parallelism added by Martijn Marsman     |
|      and Georg Kresse.                                                      |
|      Carefully verify results versus KPAR=1.                                |
|      Report problems to Paul Kent and Vienna.                               |
|                                                                             |
 ----------------------------------------------------------------------------- 

 POTCAR:    PAW_PBE Bi_d 06Sep2000                
   VRHFIN =Bi:                                                                  
   LEXCH  = PE                                                                  
   EATOM  =  1959.2045 eV,  143.9975 Ry                                         
                                                                                
   TITEL  = PAW_PBE Bi_d 06Sep2000                                              
   LULTRA =        F    use ultrasoft PP ?                                      
   IUNSCR =        1    unscreen: 0-lin 1-nonlin 2-no                           
   RPACOR =    2.200    partial core radius                                     
   POMASS =  208.980; ZVAL   =   15.000    mass and valenz                      
   RCORE  =    2.500    outmost cutoff radius                                   
   RWIGS  =    3.090; RWIGS  =    1.635    wigner-seitz radius (au A)           
   ENMAX  =  242.839; ENMIN  =  182.129 eV                                      
   ICORE  =        3    local potential                                         
   LCOR   =        T    correct aug charges                                     
   LPAW   =        T    paw PP                                                  
   EAUG   =  442.899                                                            
   DEXC   =    0.000                                                            
   RMAX   =    2.551    core radius for proj-oper                               
   RAUG   =    1.300    factor for augmentation sphere                          
   RDEP   =    2.650    radius for radial grids                                 
   RDEPT  =    2.039    core radius for aug-charge                              
                                                                                
   Atomic configuration                                                         
   16 entries                                                                   
     n  l   j            E        occ.                                          
     1  0  0.50    -90639.6581   2.0000                                         
     2  0  0.50    -16282.4666   2.0000                                         
     2  1  1.50    -13922.8286   6.0000                                         
     3  0  0.50     -3930.4763   2.0000                                         
     3  1  1.50     -3256.7013   6.0000                                         
     3  2  2.50     -2581.6168  10.0000                                         
     4  0  0.50      -902.2614   2.0000                                         
     4  1  1.50      -681.5915   6.0000                                         
     4  2  2.50      -429.8249  10.0000                                         
     4  3  3.50      -152.6004  14.0000                                         
     5  0  0.50      -157.7156   2.0000                                         
     5  1  1.50       -95.8054   6.0000                                         
     5  2  2.50       -27.0806  10.0000                                         
     6  0  0.50       -14.4732   2.0000                                         
     6  1  1.50        -4.5702   3.0000                                         
     5  3  2.50        -2.7212   0.0000                                         
   Description                                                                  
     l       E           TYP  RCUT    TYP  RCUT                                 
     2    -27.0805982     23  2.500                                             
     2     -1.3605826     23  2.500                                             
     0    -14.4732271     23  2.500                                             
     0      6.8029130     23  2.500                                             
     1     -4.5701651     23  2.500                                             
     1     13.6058260     23  2.500                                             
     3     -1.3605826      7  2.500                                             
  local pseudopotential read in
  partial core-charges read in
  partial kinetic energy density read in
  atomic valenz-charges read in
  non local Contribution for L=           2  read in
    real space projection operators read in
  non local Contribution for L=           2  read in
    real space projection operators read in
  non local Contribution for L=           0  read in
    real space projection operators read in
  non local Contribution for L=           0  read in
    real space projection operators read in
  non local Contribution for L=           1  read in
    real space projection operators read in
  non local Contribution for L=           1  read in
    real space projection operators read in
    PAW grid and wavefunctions read in
 
   number of l-projection  operators is LMAX  =           6
   number of lm-projection operators is LMMAX =          18
 
 POTCAR:    PAW_PBE Cs_sv 08Apr2002               
   VRHFIN =Cs: 5s5p6s                                                           
   LEXCH  = PE                                                                  
   EATOM  =   555.6835 eV,   40.8416 Ry                                         
                                                                                
   TITEL  = PAW_PBE Cs_sv 08Apr2002                                             
   LULTRA =        F    use ultrasoft PP ?                                      
   IUNSCR =        1    unscreen: 0-lin 1-nonlin 2-no                           
   RPACOR =    2.200    partial core radius                                     
   POMASS =  132.900; ZVAL   =    9.000    mass and valenz                      
   RCORE  =    2.500    outmost cutoff radius                                   
   RWIGS  =    2.500; RWIGS  =    1.323    wigner-seitz radius (au A)           
   ENMAX  =  220.318; ENMIN  =  165.238 eV                                      
   RCLOC  =    2.207    cutoff for local pot                                    
   LCOR   =        T    correct aug charges                                     
   LPAW   =        T    paw PP                                                  
   EAUG   =  407.933                                                            
   DEXC   =    0.000                                                            
   RMAX   =    2.554    core radius for proj-oper                               
   RAUG   =    1.300    factor for augmentation sphere                          
   RDEP   =    2.590    radius for radial grids                                 
   RDEPT  =    2.117    core radius for aug-charge                              
                                                                                
   Atomic configuration                                                         
   13 entries                                                                   
     n  l   j            E        occ.                                          
     1  0  0.50    -35790.1377   2.0000                                         
     2  0  0.50     -5613.6201   2.0000                                         
     2  1  1.50     -5035.0101   6.0000                                         
     3  0  0.50     -1167.0767   2.0000                                         
     3  1  1.50      -980.9754   6.0000                                         
     3  2  2.50      -708.0703  10.0000                                         
     4  0  0.50      -220.2386   2.0000                                         
     4  1  1.50      -160.7596   6.0000                                         
     4  2  2.50       -74.2354  10.0000                                         
     5  0  0.50       -26.7287   2.0000                                         
     6  0  0.50        -2.0862   1.0000                                         
     5  1  1.50       -13.5159   6.0000                                         
     5  2  2.50        -0.4136   0.0000                                         
   Description                                                                  
     l       E           TYP  RCUT    TYP  RCUT                                 
     0    -26.7287425     23  1.900                                             
     0     -2.0862306     23  1.900                                             
     1    -13.5158719     23  2.500                                             
     1     -2.7211652     23  2.500                                             
     2     -0.4136171     23  2.500                                             
  local pseudopotential read in
  partial core-charges read in
  partial kinetic energy density read in
  atomic valenz-charges read in
  non local Contribution for L=           0  read in
    real space projection operators read in
  non local Contribution for L=           0  read in
    real space projection operators read in
  non local Contribution for L=           1  read in
    real space projection operators read in
  non local Contribution for L=           1  read in
    real space projection operators read in
  non local Contribution for L=           2  read in
    real space projection operators read in
    PAW grid and wavefunctions read in
 
   number of l-projection  operators is LMAX  =           5
   number of lm-projection operators is LMMAX =          13
 
 POTCAR:    PAW_PBE K_sv 06Sep2000                
   VRHFIN =K:  3s3p4s                                                           
   LEXCH  = PE                                                                  
   EATOM  =   775.0067 eV,   56.9614 Ry                                         
                                                                                
   TITEL  = PAW_PBE K_sv 06Sep2000                                              
   LULTRA =        F    use ultrasoft PP ?                                      
   IUNSCR =        1    unscreen: 0-lin 1-nonlin 2-no                           
   RPACOR =    2.200    partial core radius                                     
   POMASS =   39.098; ZVAL   =    9.000    mass and valenz                      
   RCORE  =    2.300    outmost cutoff radius                                   
   RWIGS  =    3.000; RWIGS  =    1.588    wigner-seitz radius (au A)           
   ENMAX  =  259.264; ENMIN  =  194.448 eV                                      
   RCLOC  =    2.005    cutoff for local pot                                    
   LCOR   =        T    correct aug charges                                     
   LPAW   =        T    paw PP                                                  
   EAUG   =  427.853                                                            
   DEXC   =    0.000                                                            
   RMAX   =    2.358    core radius for proj-oper                               
   RAUG   =    1.300    factor for augmentation sphere                          
   RDEP   =    2.372    radius for radial grids                                 
   RDEPT  =    2.002    core radius for aug-charge                              
                                                                                
   Atomic configuration                                                         
    7 entries                                                                   
     n  l   j            E        occ.                                          
     1  0  0.50     -3522.0595   2.0000                                         
     2  0  0.50      -353.3851   2.0000                                         
     2  1  1.50      -280.0935   6.0000                                         
     3  0  0.50       -35.3419   2.0000                                         
     4  0  0.50        -2.3190   1.0000                                         
     3  1  1.50       -18.8125   6.0000                                         
     3  2  1.50        -1.3606   0.0000                                         
   Description                                                                  
     l       E           TYP  RCUT    TYP  RCUT                                 
     0    -35.3418873     23  2.300                                             
     0     -2.3190215     23  2.300                                             
     1    -18.8124623     23  2.300                                             
     1    -20.4087390     23  2.300                                             
     2     -1.3605826     23  2.300                                             
  local pseudopotential read in
  partial core-charges read in
  partial kinetic energy density read in
  atomic valenz-charges read in
  non local Contribution for L=           0  read in
    real space projection operators read in
  non local Contribution for L=           0  read in
    real space projection operators read in
  non local Contribution for L=           1  read in
    real space projection operators read in
  non local Contribution for L=           1  read in
    real space projection operators read in
  non local Contribution for L=           2  read in
    real space projection operators read in
    PAW grid and wavefunctions read in
 
   number of l-projection  operators is LMAX  =           5
   number of lm-projection operators is LMMAX =          13
 
  PAW_PBE Bi_d 06Sep2000                :
 energy of atom  1       EATOM=-1959.2045
 kinetic energy error for atom=    0.0040 (will be added to EATOM!!)
  PAW_PBE Cs_sv 08Apr2002               :
 energy of atom  2       EATOM= -555.6835
 kinetic energy error for atom=    0.0016 (will be added to EATOM!!)
  PAW_PBE K_sv 06Sep2000                :
 energy of atom  3       EATOM= -775.0067
 kinetic energy error for atom=    0.0014 (will be added to EATOM!!)
 
 
 POSCAR: Cs K Bi                                 
  positions in direct lattice
  No initial velocities read in
 exchange correlation table for  LEXCH =        8
   RHO(1)=    0.500       N(1)  =     2000
   RHO(2)=  100.500       N(2)  =     4000
 


--------------------------------------------------------------------------------------------------------


 ion  position               nearest neighbor table
   1  0.250  0.250  0.250-   4 3.85   3 3.85   3 3.85   3 3.85   4 3.85   4 3.85   4 3.85   3 3.85

   2  0.750  0.750  0.750-
   3  0.000  0.000  0.000-   1 3.85   1 3.85   1 3.85   1 3.85
   4  0.500  0.500  0.500-   1 3.85   1 3.85   1 3.85   1 3.85
 
  LATTYP: Found a face centered cubic cell.
 ALAT       =     8.8857020000
  
  Lattice vectors:
  
 A1 = (   0.0000000000,   4.4428510000,   4.4428510000)
 A2 = (   4.4428510000,   0.0000000000,   4.4428510000)
 A3 = (   4.4428510000,   4.4428510000,   0.0000000000)


Analysis of symmetry for initial positions (statically):
=====================================================================
 Subroutine PRICEL returns:
 Original cell was already a primitive cell.
 

 Routine SETGRP: Setting up the symmetry group for a 
 face centered cubic supercell.


 Subroutine GETGRP returns: Found 48 space group operations
 (whereof 24 operations were pure point group operations)
 out of a pool of 48 trial point group operations.


The static configuration has the point symmetry T_d .
 The point group associated with its full space group is O_h .


Analysis of symmetry for dynamics (positions and initial velocities):
=====================================================================
 Subroutine PRICEL returns:
 Original cell was already a primitive cell.
 

 Routine SETGRP: Setting up the symmetry group for a 
 face centered cubic supercell.


 Subroutine GETGRP returns: Found 48 space group operations
 (whereof 24 operations were pure point group operations)
 out of a pool of 48 trial point group operations.


The dynamic configuration has the point symmetry T_d .
 The point group associated with its full space group is O_h .


 Subroutine INISYM returns: Found 48 space group operations
 (whereof 24 operations are pure point group operations),
 and found     1 'primitive' translations

 
 
 KPOINTS: KPOINTS                                 

Automatic generation of k-mesh.
Space group operators:
 irot       det(A)        alpha          n_x          n_y          n_z        tau_x        tau_y        tau_z
    1     1.000000     0.000001     1.000000     0.000000     0.000000     0.000000     0.000000     0.000000
    2     1.000000   120.000000    -0.577350    -0.577350    -0.577350     0.000000     0.000000     0.000000
    3     1.000000   120.000000     0.577350     0.577350     0.577350     0.000000     0.000000     0.000000
    4    -1.000000    90.000000     0.000000     0.000000    -1.000000     0.000000     0.000000     0.000000
    5    -1.000000   180.000000     0.000000     0.707107     0.707107     0.000000     0.000000     0.000000
    6    -1.000000    90.000000     0.000000     1.000000     0.000000     0.000000     0.000000     0.000000
    7     1.000000   180.000000     0.000000     0.000000     1.000000     0.000000     0.000000     0.000000
    8     1.000000   120.000000    -0.577350     0.577350     0.577350     0.000000     0.000000     0.000000
    9     1.000000   120.000000    -0.577350     0.577350    -0.577350     0.000000     0.000000     0.000000
   10    -1.000000    90.000000     0.000000     0.000000     1.000000     0.000000     0.000000     0.000000
   11    -1.000000    90.000000    -1.000000     0.000000     0.000000     0.000000     0.000000     0.000000
   12    -1.000000   180.000000     0.707107     0.000000     0.707107     0.000000     0.000000     0.000000
   13     1.000000   120.000000     0.577350    -0.577350     0.577350     0.000000     0.000000     0.000000
   14     1.000000   120.000000    -0.577350    -0.577350     0.577350     0.000000     0.000000     0.000000
   15     1.000000   180.000000     1.000000     0.000000     0.000000     0.000000     0.000000     0.000000
   16    -1.000000    90.000000     0.000000    -1.000000     0.000000     0.000000     0.000000     0.000000
   17    -1.000000   180.000000     0.707107     0.707107     0.000000     0.000000     0.000000     0.000000
   18    -1.000000    90.000000     1.000000     0.000000     0.000000     0.000000     0.000000     0.000000
   19     1.000000   120.000000     0.577350    -0.577350    -0.577350     0.000000     0.000000     0.000000
   20     1.000000   180.000000     0.000000     1.000000     0.000000     0.000000     0.000000     0.000000
   21     1.000000   120.000000     0.577350     0.577350    -0.577350     0.000000     0.000000     0.000000
   22    -1.000000   180.000000     0.000000    -0.707107     0.707107     0.000000     0.000000     0.000000
   23    -1.000000   180.000000     0.707107    -0.707107     0.000000     0.000000     0.000000     0.000000
   24    -1.000000   180.000000     0.707107     0.000000    -0.707107     0.000000     0.000000     0.000000
   25    -1.000000     0.000001     1.000000     0.000000     0.000000     0.500001     0.500001     0.500001
   26    -1.000000   120.000000    -0.577350    -0.577350    -0.577350     0.500001     0.500001     0.500001
   27    -1.000000   120.000000     0.577350     0.577350     0.577350     0.500001     0.500001     0.500001
   28     1.000000    90.000000     0.000000     0.000000    -1.000000     0.499999     0.500001     0.500001
   29     1.000000   180.000000     0.000000     0.707107     0.707107     0.499999     0.500001     0.500001
   30     1.000000    90.000000     0.000000     1.000000     0.000000     0.499999     0.500001     0.500001
   31    -1.000000   180.000000     0.000000     0.000000     1.000000     0.500001     0.500001     0.499999
   32    -1.000000   120.000000    -0.577350     0.577350     0.577350     0.500001     0.500001     0.499999
   33    -1.000000   120.000000    -0.577350     0.577350    -0.577350     0.500001     0.500001     0.499999
   34     1.000000    90.000000     0.000000     0.000000     1.000000     0.500001     0.499999     0.500001
   35     1.000000    90.000000    -1.000000     0.000000     0.000000     0.500001     0.499999     0.500001
   36     1.000000   180.000000     0.707107     0.000000     0.707107     0.500001     0.499999     0.500001
   37    -1.000000   120.000000     0.577350    -0.577350     0.577350     0.499999     0.500001     0.500001
   38    -1.000000   120.000000    -0.577350    -0.577350     0.577350     0.499999     0.500001     0.500001
   39    -1.000000   180.000000     1.000000     0.000000     0.000000     0.499999     0.500001     0.500001
   40     1.000000    90.000000     0.000000    -1.000000     0.000000     0.500001     0.500001     0.499999
   41     1.000000   180.000000     0.707107     0.707107     0.000000     0.500001     0.500001     0.499999
   42     1.000000    90.000000     1.000000     0.000000     0.000000     0.500001     0.500001     0.499999
   43    -1.000000   120.000000     0.577350    -0.577350    -0.577350     0.500001     0.499999     0.500001
   44    -1.000000   180.000000     0.000000     1.000000     0.000000     0.500001     0.499999     0.500001
   45    -1.000000   120.000000     0.577350     0.577350    -0.577350     0.500001     0.499999     0.500001
   46     1.000000   180.000000     0.000000    -0.707107     0.707107     0.500001     0.500001     0.500001
   47     1.000000   180.000000     0.707107    -0.707107     0.000000     0.500001     0.500001     0.500001
   48     1.000000   180.000000     0.707107     0.000000    -0.707107     0.500001     0.500001     0.500001
 
 Subroutine IBZKPT returns following result:
 ===========================================
 
 Found     29 irreducible k-points:
 
 Following reciprocal coordinates:
            Coordinates               Weight
  0.000000  0.000000  0.000000      1.000000
  0.125000  0.000000  0.000000      8.000000
  0.250000  0.000000  0.000000      8.000000
  0.375000  0.000000  0.000000      8.000000
  0.500000  0.000000  0.000000      4.000000
  0.125000  0.125000  0.000000      6.000000
  0.250000  0.125000  0.000000     24.000000
  0.375000  0.125000  0.000000     24.000000
  0.500000  0.125000  0.000000     24.000000
 -0.375000  0.125000  0.000000     24.000000
 -0.250000  0.125000  0.000000     24.000000
 -0.125000  0.125000  0.000000     12.000000
  0.250000  0.250000  0.000000      6.000000
  0.375000  0.250000  0.000000     24.000000
  0.500000  0.250000  0.000000     24.000000
 -0.375000  0.250000  0.000000     24.000000
 -0.250000  0.250000  0.000000     12.000000
  0.375000  0.375000  0.000000      6.000000
  0.500000  0.375000  0.000000     24.000000
 -0.375000  0.375000  0.000000     12.000000
  0.500000  0.500000  0.000000      3.000000
  0.375000  0.250000  0.125000     24.000000
  0.500000  0.250000  0.125000     48.000000
 -0.375000  0.250000  0.125000     24.000000
  0.500000  0.375000  0.125000     24.000000
 -0.375000  0.375000  0.125000     48.000000
 -0.250000  0.375000  0.125000     24.000000
 -0.375000  0.500000  0.125000     12.000000
 -0.250000  0.500000  0.250000      6.000000
 
 Following cartesian coordinates:
            Coordinates               Weight
  0.000000  0.000000  0.000000      1.000000
 -0.014068  0.014068  0.014068      8.000000
 -0.028135  0.028135  0.028135      8.000000
 -0.042203  0.042203  0.042203      8.000000
 -0.056270  0.056270  0.056270      4.000000
  0.000000  0.000000  0.028135      6.000000
 -0.014068  0.014068  0.042203     24.000000
 -0.028135  0.028135  0.056270     24.000000
 -0.042203  0.042203  0.070338     24.000000
  0.056270 -0.056270 -0.028135     24.000000
  0.042203 -0.042203 -0.014068     24.000000
  0.028135 -0.028135  0.000000     12.000000
  0.000000  0.000000  0.056270      6.000000
 -0.014068  0.014068  0.070338     24.000000
 -0.028135  0.028135  0.084405     24.000000
  0.070338 -0.070338 -0.014068     24.000000
  0.056270 -0.056270  0.000000     12.000000
  0.000000  0.000000  0.084405      6.000000
 -0.014068  0.014068  0.098473     24.000000
  0.084405 -0.084405  0.000000     12.000000
  0.000000  0.000000  0.112540      3.000000
 -0.000000  0.028135  0.056270     24.000000
 -0.014068  0.042203  0.070338     48.000000
  0.084405 -0.056270 -0.028135     24.000000
 -0.000000  0.028135  0.084405     24.000000
  0.098473 -0.070338 -0.014068     48.000000
  0.084405 -0.056270 -0.000000     24.000000
  0.112540 -0.084405  0.000000     12.000000
  0.112540 -0.056270  0.000000      6.000000
 


--------------------------------------------------------------------------------------------------------




 Dimension of arrays:
   k-points           NKPTS =     29   k-points in BZ     NKDIM =     29   number of bands    NBANDS=     25
   number of dos      NEDOS =    301   number of ions     NIONS =      4
   non local maximal  LDIM  =      6   non local SUM 2l+1 LMDIM =     18
   total plane-waves  NPLWV = 110592
   max r-space proj   IRMAX =      1   max aug-charges    IRDMAX=  31720
   dimension x,y,z NGX =    48 NGY =   48 NGZ =   48
   dimension x,y,z NGXF=    96 NGYF=   96 NGZF=   96
   support grid    NGXF=    96 NGYF=   96 NGZF=   96
   ions per type =               1   1   2
   NGX,Y,Z   is equivalent  to a cutoff of  12.70, 12.70, 12.70 a.u.
   NGXF,Y,Z  is equivalent  to a cutoff of  25.40, 25.40, 25.40 a.u.

 SYSTEM =  unknown system                          
 POSCAR =  Cs K Bi                                 

 Startparameter for this run:
   NWRITE =      2    write-flag & timer
   PREC   = acc       normal or accurate (medium, high low for compatibility)
   ISTART =      0    job   : 0-new  1-cont  2-samecut
   ICHARG =      2    charge: 1-file 2-atom 10-const
   ISPIN  =      1    spin polarized calculation?
   LNONCOLLINEAR =      F non collinear calculations
   LSORBIT =      F    spin-orbit coupling
   INIWAV =      1    electr: 0-lowe 1-rand  2-diag
   LASPH  =      F    aspherical Exc in radial PAW
   METAGGA=      F    non-selfconsistent MetaGGA calc.

 Electronic Relaxation 1
   ENCUT  =  520.0 eV  38.22 Ry    6.18 a.u.  11.68 11.68 11.68*2*pi/ulx,y,z
   ENINI  =  520.0     initial cutoff
   ENAUG  =  442.9 eV  augmentation charge cutoff
   NELM   =     60;   NELMIN=  5; NELMDL= -5     # of ELM steps 
   EDIFF  = 0.1E-04   stopping-criterion for ELM
   LREAL  =      F    real-space projection
   NLSPLINE    = F    spline interpolate recip. space projectors
   LCOMPAT=      F    compatible to vasp.4.4
   GGA_COMPAT  = T    GGA compatible to vasp.4.4-vasp.4.6
   LMAXPAW     = -100 max onsite density
   LMAXMIX     =    2 max onsite mixed and CHGCAR
   VOSKOWN=      0    Vosko Wilk Nusair interpolation
   ROPT   =    0.00000   0.00000   0.00000
 Ionic relaxation
   EDIFFG = -.1E-02   stopping-criterion for IOM
   NSW    =    100    number of steps for IOM
   NBLOCK =      1;   KBLOCK =    100    inner block; outer block 
   IBRION =      2    ionic relax: 0-MD 1-quasi-New 2-CG
   NFREE  =      1    steps in history (QN), initial steepest desc. (CG)
   ISIF   =      3    stress and relaxation
   IWAVPR =     11    prediction:  0-non 1-charg 2-wave 3-comb
   ISYM   =      2    0-nonsym 1-usesym 2-fastsym
   LCORR  =      T    Harris-Foulkes like correction to forces

   POTIM  = 0.5000    time-step for ionic-motion
   TEIN   =    0.0    initial temperature
   TEBEG  =    0.0;   TEEND  =   0.0 temperature during run
   SMASS  =  -3.00    Nose mass-parameter (am)
   estimated Nose-frequenzy (Omega)   =  0.10E-29 period in steps =****** mass=  -0.902E-27a.u.
   SCALEE = 1.0000    scale energy and forces
   NPACO  =    256;   APACO  = 16.0  distance and # of slots for P.C.
   PSTRESS=    0.0 pullay stress

  Mass of Ions in am
   POMASS = 208.98132.90 39.10
  Ionic Valenz
   ZVAL   =  15.00  9.00  9.00
  Atomic Wigner-Seitz radii
   RWIGS  =  -1.00 -1.00 -1.00
  virtual crystal weights 
   VCA    =   1.00  1.00  1.00
   NELECT =      42.0000    total number of electrons
   NUPDOWN=      -1.0000    fix difference up-down

 DOS related values:
   EMIN   =  10.00;   EMAX   =-10.00  energy-range for DOS
   EFERMI =   0.00
   ISMEAR =     0;   SIGMA  =   0.05  broadening in eV -4-tet -1-fermi 0-gaus

 Electronic relaxation 2 (details)
   IALGO  =     38    algorithm
   LDIAG  =      T    sub-space diagonalisation (order eigenvalues)
   LSUBROT=      F    optimize rotation matrix (better conditioning)
   TURBO    =      0    0=normal 1=particle mesh
   IRESTART =      0    0=no restart 2=restart with 2 vectors
   NREBOOT  =      0    no. of reboots
   NMIN     =      0    reboot dimension
   EREF     =   0.00    reference energy to select bands
   IMIX   =      4    mixing-type and parameters
     AMIX     =   0.40;   BMIX     =  1.00
     AMIX_MAG =   1.60;   BMIX_MAG =  1.00
     AMIN     =   0.10
     WC   =   100.;   INIMIX=   1;  MIXPRE=   1;  MAXMIX= -45

 Intra band minimization:
   WEIMIN = 0.0010     energy-eigenvalue tresh-hold
   EBREAK =  0.10E-06  absolut break condition
   DEPER  =   0.30     relativ break condition  

   TIME   =   0.40     timestep for ELM

  volume/ion in A,a.u.               =      43.85       295.90
  Fermi-wavevector in a.u.,A,eV,Ry     =   1.016606  1.921108 14.061466  1.033489
  Thomas-Fermi vector in A             =   2.149960
 
 Write flags
   LWAVE        =      F    write WAVECAR
   LDOWNSAMPLE  =      F    k-point downsampling of WAVECAR
   LCHARG       =      F    write CHGCAR
   LVTOT        =      F    write LOCPOT, total local potential
   LVHAR        =      F    write LOCPOT, Hartree potential only
   LELF         =      F    write electronic localiz. function (ELF)
   LORBIT       =      0    0 simple, 1 ext, 2 COOP (PROOUT), +10 PAW based schemes


 Dipole corrections
   LMONO  =      F    monopole corrections only (constant potential shift)
   LDIPOL =      F    correct potential (dipole corrections)
   IDIPOL =      0    1-x, 2-y, 3-z, 4-all directions 
   EPSILON=  1.0000000 bulk dielectric constant

 Exchange correlation treatment:
   GGA     =    PE    GGA type
   LEXCH   =     8    internal setting for exchange type
   VOSKOWN=      0    Vosko Wilk Nusair interpolation
   LHFCALC =     F    Hartree Fock is set to
   LHFONE  =     F    Hartree Fock one center treatment
   AEXX    =    0.0000 exact exchange contribution

 Linear response parameters
   LEPSILON=     F    determine dielectric tensor
   LRPA    =     F    only Hartree local field effects (RPA)
   LNABLA  =     F    use nabla operator in PAW spheres
   LVEL    =     F    velocity operator in full k-point grid
   LINTERFAST=   F  fast interpolation
   KINTER  =     0    interpolate to denser k-point grid
   CSHIFT  =0.1000    complex shift for real part using Kramers Kronig
   OMEGAMAX=  -1.0    maximum frequency
   DEG_THRESHOLD= 0.2000000E-02 threshold for treating states as degnerate
   RTIME   =   -0.100 relaxation time in fs
  (WPLASMAI=    0.000 imaginary part of plasma frequency in eV, 0.658/RTIME)
   DFIELD  = 0.0000000 0.0000000 0.0000000 field for delta impulse in time
 
 Orbital magnetization related:
   ORBITALMAG=     F  switch on orbital magnetization
   LCHIMAG   =     F  perturbation theory with respect to B field
   DQ        =  0.001000  dq finite difference perturbation B field
   LLRAUG    =     F  two centre corrections for induced B field



--------------------------------------------------------------------------------------------------------


 conjugate gradient relaxation of ions
 charge density and potential will be updated during run
 non-spin polarized calculation
 Variant of blocked Davidson
 Davidson routine will perform the subspace rotation
 perform sub-space diagonalisation
    after iterative eigenvector-optimisation
 modified Broyden-mixing scheme, WC =      100.0
 initial mixing is a Kerker type mixing with AMIX =  0.4000 and BMIX =      1.0000
 Hartree-type preconditioning will be used
 using additional bands            4
 reciprocal scheme for non local part
 use partial core corrections
 calculate Harris-corrections to forces 
   (improved forces if not selfconsistent)
 use gradient corrections 
 use of overlap-Matrix (Vanderbilt PP)
 Gauss-broadening in eV      SIGMA  =   0.05


--------------------------------------------------------------------------------------------------------


  energy-cutoff  :      520.00
  volume of cell :      175.39
      direct lattice vectors                 reciprocal lattice vectors
     0.000000000  4.442851000  4.442851000    -0.112540349  0.112540349  0.112540349
     4.442851000  0.000000000  4.442851000     0.112540349 -0.112540349  0.112540349
     4.442851000  4.442851000  0.000000000     0.112540349  0.112540349 -0.112540349

  length of vectors
     6.283140140  6.283140140  6.283140140     0.194925602  0.194925602  0.194925602


 
 k-points in units of 2pi/SCALE and weight: KPOINTS                                 
   0.00000000  0.00000000  0.00000000       0.002
  -0.01406754  0.01406754  0.01406754       0.016
  -0.02813509  0.02813509  0.02813509       0.016
  -0.04220263  0.04220263  0.04220263       0.016
  -0.05627017  0.05627017  0.05627017       0.008
   0.00000000  0.00000000  0.02813509       0.012
  -0.01406754  0.01406754  0.04220263       0.047
  -0.02813509  0.02813509  0.05627017       0.047
  -0.04220263  0.04220263  0.07033772       0.047
   0.05627017 -0.05627017 -0.02813509       0.047
   0.04220263 -0.04220263 -0.01406754       0.047
   0.02813509 -0.02813509  0.00000000       0.023
   0.00000000  0.00000000  0.05627017       0.012
  -0.01406754  0.01406754  0.07033772       0.047
  -0.02813509  0.02813509  0.08440526       0.047
   0.07033772 -0.07033772 -0.01406754       0.047
   0.05627017 -0.05627017  0.00000000       0.023
   0.00000000  0.00000000  0.08440526       0.012
  -0.01406754  0.01406754  0.09847280       0.047
   0.08440526 -0.08440526  0.00000000       0.023
   0.00000000  0.00000000  0.11254035       0.006
  -0.00000000  0.02813509  0.05627017       0.047
  -0.01406754  0.04220263  0.07033772       0.094
   0.08440526 -0.05627017 -0.02813509       0.047
  -0.00000000  0.02813509  0.08440526       0.047
   0.09847280 -0.07033772 -0.01406754       0.094
   0.08440526 -0.05627017 -0.00000000       0.047
   0.11254035 -0.08440526  0.00000000       0.023
   0.11254035 -0.05627017  0.00000000       0.012
 
 k-points in reciprocal lattice and weights: KPOINTS                                 
   0.00000000  0.00000000  0.00000000       0.002
   0.12500000  0.00000000  0.00000000       0.016
   0.25000000  0.00000000  0.00000000       0.016
   0.37500000  0.00000000  0.00000000       0.016
   0.50000000  0.00000000  0.00000000       0.008
   0.12500000  0.12500000  0.00000000       0.012
   0.25000000  0.12500000  0.00000000       0.047
   0.37500000  0.12500000  0.00000000       0.047
   0.50000000  0.12500000  0.00000000       0.047
  -0.37500000  0.12500000  0.00000000       0.047
  -0.25000000  0.12500000  0.00000000       0.047
  -0.12500000  0.12500000  0.00000000       0.023
   0.25000000  0.25000000  0.00000000       0.012
   0.37500000  0.25000000  0.00000000       0.047
   0.50000000  0.25000000  0.00000000       0.047
  -0.37500000  0.25000000  0.00000000       0.047
  -0.25000000  0.25000000  0.00000000       0.023
   0.37500000  0.37500000  0.00000000       0.012
   0.50000000  0.37500000  0.00000000       0.047
  -0.37500000  0.37500000  0.00000000       0.023
   0.50000000  0.50000000  0.00000000       0.006
   0.37500000  0.25000000  0.12500000       0.047
   0.50000000  0.25000000  0.12500000       0.094
  -0.37500000  0.25000000  0.12500000       0.047
   0.50000000  0.37500000  0.12500000       0.047
  -0.37500000  0.37500000  0.12500000       0.094
  -0.25000000  0.37500000  0.12500000       0.047
  -0.37500000  0.50000000  0.12500000       0.023
  -0.25000000  0.50000000  0.25000000       0.012
 
 position of ions in fractional coordinates (direct lattice) 
   0.25000051  0.25000051  0.25000051
   0.75000039  0.75000039  0.75000039
   0.00000000  0.00000000  0.00000000
   0.49999989  0.49999989  0.49999989
 
 position of ions in cartesian coordinates  (Angst):
   2.22143000  2.22143000  2.22143000
   6.66428000  6.66428000  6.66428000
   0.00000000  0.00000000  0.00000000
   4.44285000  4.44285000  4.44285000
 


--------------------------------------------------------------------------------------------------------


 k-point  1 :   0.0000 0.0000 0.0000  plane waves:    4693
 k-point  2 :   0.1250 0.0000 0.0000  plane waves:    4735
 k-point  3 :   0.2500 0.0000 0.0000  plane waves:    4738
 k-point  4 :   0.3750 0.0000 0.0000  plane waves:    4714
 k-point  5 :   0.5000 0.0000 0.0000  plane waves:    4766
 k-point  6 :   0.1250 0.1250 0.0000  plane waves:    4741
 k-point  7 :   0.2500 0.1250 0.0000  plane waves:    4734
 k-point  8 :   0.3750 0.1250 0.0000  plane waves:    4708
 k-point  9 :   0.5000 0.1250 0.0000  plane waves:    4722
 k-point 10 :  -0.3750 0.1250 0.0000  plane waves:    4715
 k-point 11 :  -0.2500 0.1250 0.0000  plane waves:    4722
 k-point 12 :  -0.1250 0.1250 0.0000  plane waves:    4737
 k-point 13 :   0.2500 0.2500 0.0000  plane waves:    4729
 k-point 14 :   0.3750 0.2500 0.0000  plane waves:    4723
 k-point 15 :   0.5000 0.2500 0.0000  plane waves:    4718
 k-point 16 :  -0.3750 0.2500 0.0000  plane waves:    4723
 k-point 17 :  -0.2500 0.2500 0.0000  plane waves:    4712
 k-point 18 :   0.3750 0.3750 0.0000  plane waves:    4716
 k-point 19 :   0.5000 0.3750 0.0000  plane waves:    4727
 k-point 20 :  -0.3750 0.3750 0.0000  plane waves:    4714
 k-point 21 :   0.5000 0.5000 0.0000  plane waves:    4720
 k-point 22 :   0.3750 0.2500 0.1250  plane waves:    4724
 k-point 23 :   0.5000 0.2500 0.1250  plane waves:    4717
 k-point 24 :  -0.3750 0.2500 0.1250  plane waves:    4732
 k-point 25 :   0.5000 0.3750 0.1250  plane waves:    4727
 k-point 26 :  -0.3750 0.3750 0.1250  plane waves:    4721
 k-point 27 :  -0.2500 0.3750 0.1250  plane waves:    4722
 k-point 28 :  -0.3750 0.5000 0.1250  plane waves:    4718
 k-point 29 :  -0.2500 0.5000 0.2500  plane waves:    4712

 maximum and minimum number of plane-waves per node :       710      653

 maximum number of plane-waves:      4766
 maximum index in each direction: 
   IXMAX=   12   IYMAX=   11   IZMAX=   11
   IXMIN=  -12   IYMIN=  -12   IZMIN=  -11


 parallel 3D FFT for wavefunctions:
    minimum data exchange during FFTs selected (reduces bandwidth)
 parallel 3D FFT for charge:
    minimum data exchange during FFTs selected (reduces bandwidth)


 total amount of memory used by VASP MPI-rank0    60724. kBytes
=======================================================================

   base      :      30000. kBytes
   nonl-proj :       8638. kBytes
   fftplans  :       4868. kBytes
   grid      :       9037. kBytes
   one-center:         15. kBytes
   wavefun   :       8166. kBytes
 
     INWAV:  cpu time    0.0000: real time    0.0000
 Broyden mixing: mesh for mixing (old mesh)
   NGX = 23   NGY = 23   NGZ = 23
  (NGX  = 96   NGY  = 96   NGZ  = 96)
  gives a total of  12167 points

 initial charge density was supplied:
 charge density of overlapping atoms calculated
 number of electron      42.0000000 magnetization 
 keeping initial charge density in first step


--------------------------------------------------------------------------------------------------------


 Maximum index for augmentation-charges         4406 (set IRDMAX)


--------------------------------------------------------------------------------------------------------


 First call to EWALD:  gamma=   0.317
 Maximum number of real-space cells 3x 3x 3
 Maximum number of reciprocal cells 3x 3x 3

    FEWALD:  cpu time    0.0016: real time    0.0017


--------------------------------------- Iteration      1(   1)  ---------------------------------------


    POTLOK:  cpu time    0.0792: real time    0.0837
    SETDIJ:  cpu time    0.0043: real time    0.0043
     EDDAV:  cpu time    0.4920: real time    0.4925
       DOS:  cpu time    0.0006: real time    0.0006
    --------------------------------------------
      LOOP:  cpu time    0.5762: real time    0.5811

 eigenvalue-minimisations  :  1450
 total energy-change (2. order) : 0.3941232E+03  (-0.1974089E+04)
 number of electron      42.0000000 magnetization 
 augmentation part       42.0000000 magnetization 

 Free energy of the ion-electron system (eV)
  ---------------------------------------------------
  alpha Z        PSCENC =       141.22081525
  Ewald energy   TEWEN  =     -2681.49754213
  -Hartree energ DENC   =     -1151.78515267
  -exchange      EXHF   =         0.00000000
  -V(xc)+E(xc)   XCENC  =       129.98614631
  PAW double counting   =      3288.09641306    -3241.43768472
  entropy T*S    EENTRO =        -0.00131951
  eigenvalues    EBANDS =      -155.35147539
  atomic energy  EATOM  =      4064.89301065
  Solvation  Ediel_sol  =         0.00000000
  ---------------------------------------------------
  free energy    TOTEN  =       394.12321086 eV

  energy without entropy =      394.12453037  energy(sigma->0) =      394.12387062


--------------------------------------------------------------------------------------------------------




--------------------------------------- Iteration      1(   2)  ---------------------------------------


     EDDAV:  cpu time    0.5131: real time    0.5155
       DOS:  cpu time    0.0006: real time    0.0006
    --------------------------------------------
      LOOP:  cpu time    0.5136: real time    0.5160

 eigenvalue-minimisations  :  1676
 total energy-change (2. order) :-0.3681917E+03  (-0.3627104E+03)
 number of electron      42.0000000 magnetization 
 augmentation part       42.0000000 magnetization 

 Free energy of the ion-electron system (eV)
  ---------------------------------------------------
  alpha Z        PSCENC =       141.22081525
  Ewald energy   TEWEN  =     -2681.49754213
  -Hartree energ DENC   =     -1151.78515267
  -exchange      EXHF   =         0.00000000
  -V(xc)+E(xc)   XCENC  =       129.98614631
  PAW double counting   =      3288.09641306    -3241.43768472
  entropy T*S    EENTRO =        -0.00029631
  eigenvalues    EBANDS =      -523.54414909
  atomic energy  EATOM  =      4064.89301065
  Solvation  Ediel_sol  =         0.00000000
  ---------------------------------------------------
  free energy    TOTEN  =        25.93156035 eV

  energy without entropy =       25.93185667  energy(sigma->0) =       25.93170851


--------------------------------------------------------------------------------------------------------




--------------------------------------- Iteration      1(   3)  ---------------------------------------


     EDDAV:  cpu time    0.5701: real time    0.5707
       DOS:  cpu time    0.0003: real time    0.0003
    --------------------------------------------
      LOOP:  cpu time    0.5704: real time    0.5710

 eigenvalue-minimisations  :  1953
 total energy-change (2. order) :-0.3367798E+02  (-0.3362020E+02)
 number of electron      42.0000000 magnetization 
 augmentation part       42.0000000 magnetization 

 Free energy of the ion-electron system (eV)
  ---------------------------------------------------
  alpha Z        PSCENC =       141.22081525
  Ewald energy   TEWEN  =     -2681.49754213
  -Hartree energ DENC   =     -1151.78515267
  -exchange      EXHF   =         0.00000000
  -V(xc)+E(xc)   XCENC  =       129.98614631
  PAW double counting   =      3288.09641306    -3241.43768472
  entropy T*S    EENTRO =        -0.00000000
  eigenvalues    EBANDS =      -557.22242399
  atomic energy  EATOM  =      4064.89301065
  Solvation  Ediel_sol  =         0.00000000
  ---------------------------------------------------
  free energy    TOTEN  =        -7.74641823 eV

  energy without entropy =       -7.74641823  energy(sigma->0) =       -7.74641823


--------------------------------------------------------------------------------------------------------




--------------------------------------- Iteration      1(   4)  ---------------------------------------


     EDDAV:  cpu time    0.6623: real time    0.6635
       DOS:  cpu time    0.0003: real time    0.0003
    --------------------------------------------
      LOOP:  cpu time    0.6626: real time    0.6638

 eigenvalue-minimisations  :  2316
 total energy-change (2. order) :-0.1386649E+01  (-0.1385071E+01)
 number of electron      42.0000000 magnetization 
 augmentation part       42.0000000 magnetization 

 Free energy of the ion-electron system (eV)
  ---------------------------------------------------
  alpha Z        PSCENC =       141.22081525
  Ewald energy   TEWEN  =     -2681.49754213
  -Hartree energ DENC   =     -1151.78515267
  -exchange      EXHF   =         0.00000000
  -V(xc)+E(xc)   XCENC  =       129.98614631
  PAW double counting   =      3288.09641306    -3241.43768472
  entropy T*S    EENTRO =        -0.00000000
  eigenvalues    EBANDS =      -558.60907266
  atomic energy  EATOM  =      4064.89301065
  Solvation  Ediel_sol  =         0.00000000
  ---------------------------------------------------
  free energy    TOTEN  =        -9.13306691 eV

  energy without entropy =       -9.13306691  energy(sigma->0) =       -9.13306691


--------------------------------------------------------------------------------------------------------




--------------------------------------- Iteration      1(   5)  ---------------------------------------


     EDDAV:  cpu time    0.6373: real time    0.6378
       DOS:  cpu time    0.0003: real time    0.0003
    CHARGE:  cpu time    0.0601: real time    0.0601
    MIXING:  cpu time    0.0046: real time    0.0046
    --------------------------------------------
      LOOP:  cpu time    0.7024: real time    0.7029

 eigenvalue-minimisations  :  2147
 total energy-change (2. order) :-0.4183533E-01  (-0.4183062E-01)
 number of electron      42.0000001 magnetization 
 augmentation part        6.7081847 magnetization 

 Broyden mixing:
  rms(total) = 0.45432E+00    rms(broyden)= 0.45432E+00
  rms(prec ) = 0.10519E+01
  weight for this iteration     100.00

 Free energy of the ion-electron system (eV)
  ---------------------------------------------------
  alpha Z        PSCENC =       141.22081525
  Ewald energy   TEWEN  =     -2681.49754213
  -Hartree energ DENC   =     -1151.78515267
  -exchange      EXHF   =         0.00000000
  -V(xc)+E(xc)   XCENC  =       129.98614631
  PAW double counting   =      3288.09641306    -3241.43768472
  entropy T*S    EENTRO =        -0.00000000
  eigenvalues    EBANDS =      -558.65090799
  atomic energy  EATOM  =      4064.89301065
  Solvation  Ediel_sol  =         0.00000000
  ---------------------------------------------------
  free energy    TOTEN  =        -9.17490224 eV

  energy without entropy =       -9.17490224  energy(sigma->0) =       -9.17490224


--------------------------------------------------------------------------------------------------------




--------------------------------------- Iteration      1(   6)  ---------------------------------------


    POTLOK:  cpu time    0.0833: real time    0.0837
    SETDIJ:  cpu time    0.0054: real time    0.0055
     EDDAV:  cpu time    0.5515: real time    0.5518
       DOS:  cpu time    0.0003: real time    0.0003
    CHARGE:  cpu time    0.0587: real time    0.0587
    MIXING:  cpu time    0.0052: real time    0.0052
    --------------------------------------------
      LOOP:  cpu time    0.7045: real time    0.7051

 eigenvalue-minimisations  :  1758
 total energy-change (2. order) : 0.7425725E+00  (-0.1765062E+00)
 number of electron      42.0000001 magnetization 
 augmentation part        6.7294646 magnetization 

 Broyden mixing:
  rms(total) = 0.34806E+00    rms(broyden)= 0.34806E+00
  rms(prec ) = 0.54591E+00
  weight for this iteration     100.00

 eigenvalues of (default mixing * dielectric matrix)
  average eigenvalue GAMMA=   1.7571
  1.7571

 Free energy of the ion-electron system (eV)
  ---------------------------------------------------
  alpha Z        PSCENC =       141.22081525
  Ewald energy   TEWEN  =     -2681.49754213
  -Hartree energ DENC   =     -1154.32871498
  -exchange      EXHF   =         0.00000000
  -V(xc)+E(xc)   XCENC  =       129.92735153
  PAW double counting   =      3355.86492439    -3312.86708395
  entropy T*S    EENTRO =        -0.00000000
  eigenvalues    EBANDS =      -551.64509048
  atomic energy  EATOM  =      4064.89301065
  Solvation  Ediel_sol  =         0.00000000
  ---------------------------------------------------
  free energy    TOTEN  =        -8.43232972 eV

  energy without entropy =       -8.43232972  energy(sigma->0) =       -8.43232972


--------------------------------------------------------------------------------------------------------




--------------------------------------- Iteration      1(   7)  ---------------------------------------


    POTLOK:  cpu time    0.0831: real time    0.0842
    SETDIJ:  cpu time    0.0054: real time    0.0054
     EDDAV:  cpu time    0.5751: real time    0.5752
       DOS:  cpu time    0.0004: real time    0.0004
    CHARGE:  cpu time    0.0569: real time    0.0569
    MIXING:  cpu time    0.0039: real time    0.0039
    --------------------------------------------
      LOOP:  cpu time    0.7249: real time    0.7260

 eigenvalue-minimisations  :  1956
 total energy-change (2. order) : 0.1284576E+00  (-0.8713115E-01)
 number of electron      42.0000001 magnetization 
 augmentation part        6.7256691 magnetization 

 Broyden mixing:
  rms(total) = 0.18454E+00    rms(broyden)= 0.18454E+00
  rms(prec ) = 0.21729E+00
  weight for this iteration     100.00

 eigenvalues of (default mixing * dielectric matrix)
  average eigenvalue GAMMA=   1.9563
  1.9563  1.9563

 Free energy of the ion-electron system (eV)
  ---------------------------------------------------
  alpha Z        PSCENC =       141.22081525
  Ewald energy   TEWEN  =     -2681.49754213
  -Hartree energ DENC   =     -1152.71485456
  -exchange      EXHF   =         0.00000000
  -V(xc)+E(xc)   XCENC  =       129.79501874
  PAW double counting   =      3387.48720044    -3345.84870056
  entropy T*S    EENTRO =        -0.00000001
  eigenvalues    EBANDS =      -551.63881999
  atomic energy  EATOM  =      4064.89301065
  Solvation  Ediel_sol  =         0.00000000
  ---------------------------------------------------
  free energy    TOTEN  =        -8.30387217 eV

  energy without entropy =       -8.30387216  energy(sigma->0) =       -8.30387216


--------------------------------------------------------------------------------------------------------




--------------------------------------- Iteration      1(   8)  ---------------------------------------


    POTLOK:  cpu time    0.0809: real time    0.0813
    SETDIJ:  cpu time    0.0058: real time    0.0058
     EDDAV:  cpu time    0.5667: real time    0.5668
       DOS:  cpu time    0.0004: real time    0.0004
    CHARGE:  cpu time    0.0571: real time    0.0572
    MIXING:  cpu time    0.0041: real time    0.0041
    --------------------------------------------
      LOOP:  cpu time    0.7149: real time    0.7155

 eigenvalue-minimisations  :  1859
 total energy-change (2. order) :-0.1122314E-01  (-0.1277493E-01)
 number of electron      42.0000001 magnetization 
 augmentation part        6.7130261 magnetization 

 Broyden mixing:
  rms(total) = 0.23675E-01    rms(broyden)= 0.23674E-01
  rms(prec ) = 0.58247E-01
  weight for this iteration     100.00

 eigenvalues of (default mixing * dielectric matrix)
  average eigenvalue GAMMA=   1.6858
  1.2346  1.9114  1.9114

 Free energy of the ion-electron system (eV)
  ---------------------------------------------------
  alpha Z        PSCENC =       141.22081525
  Ewald energy   TEWEN  =     -2681.49754213
  -Hartree energ DENC   =     -1150.38418501
  -exchange      EXHF   =         0.00000000
  -V(xc)+E(xc)   XCENC  =       129.75173588
  PAW double counting   =      3378.61409057    -3335.41246136
  entropy T*S    EENTRO =        -0.00000000
  eigenvalues    EBANDS =      -555.50055916
  atomic energy  EATOM  =      4064.89301065
  Solvation  Ediel_sol  =         0.00000000
  ---------------------------------------------------
  free energy    TOTEN  =        -8.31509531 eV

  energy without entropy =       -8.31509531  energy(sigma->0) =       -8.31509531


--------------------------------------------------------------------------------------------------------




--------------------------------------- Iteration      1(   9)  ---------------------------------------


    POTLOK:  cpu time    0.0808: real time    0.0812
    SETDIJ:  cpu time    0.0058: real time    0.0058
     EDDAV:  cpu time    0.5633: real time    0.5635
       DOS:  cpu time    0.0004: real time    0.0004
    CHARGE:  cpu time    0.0571: real time    0.0571
    MIXING:  cpu time    0.0040: real time    0.0040
    --------------------------------------------
      LOOP:  cpu time    0.7114: real time    0.7120

 eigenvalue-minimisations  :  1958
 total energy-change (2. order) : 0.6218250E-03  (-0.1793784E-02)
 number of electron      42.0000002 magnetization 
 augmentation part        6.7122790 magnetization 

 Broyden mixing:
  rms(total) = 0.15121E-01    rms(broyden)= 0.15121E-01
  rms(prec ) = 0.26363E-01
  weight for this iteration     100.00

 eigenvalues of (default mixing * dielectric matrix)
  average eigenvalue GAMMA=   1.7834
  2.3852  2.3852  1.1816  1.1816

 Free energy of the ion-electron system (eV)
  ---------------------------------------------------
  alpha Z        PSCENC =       141.22081525
  Ewald energy   TEWEN  =     -2681.49754213
  -Hartree energ DENC   =     -1151.30038230
  -exchange      EXHF   =         0.00000000
  -V(xc)+E(xc)   XCENC  =       129.79004195
  PAW double counting   =      3385.66462634    -3342.40777569
  entropy T*S    EENTRO =        -0.00000001
  eigenvalues    EBANDS =      -554.67726754
  atomic energy  EATOM  =      4064.89301065
  Solvation  Ediel_sol  =         0.00000000
  ---------------------------------------------------
  free energy    TOTEN  =        -8.31447348 eV

  energy without entropy =       -8.31447348  energy(sigma->0) =       -8.31447348


--------------------------------------------------------------------------------------------------------




--------------------------------------- Iteration      1(  10)  ---------------------------------------


    POTLOK:  cpu time    0.0808: real time    0.0812
    SETDIJ:  cpu time    0.0056: real time    0.0056
     EDDAV:  cpu time    0.5720: real time    0.5723
       DOS:  cpu time    0.0004: real time    0.0004
    CHARGE:  cpu time    0.0584: real time    0.0584
    MIXING:  cpu time    0.0044: real time    0.0044
    --------------------------------------------
      LOOP:  cpu time    0.7216: real time    0.7222

 eigenvalue-minimisations  :  1894
 total energy-change (2. order) :-0.2918043E-03  (-0.2253214E-03)
 number of electron      42.0000002 magnetization 
 augmentation part        6.7115689 magnetization 

 Broyden mixing:
  rms(total) = 0.38514E-02    rms(broyden)= 0.38513E-02
  rms(prec ) = 0.80384E-02
  weight for this iteration     100.00

 eigenvalues of (default mixing * dielectric matrix)
  average eigenvalue GAMMA=   1.9078
  2.8897  2.1523  2.1523  1.0407  1.3040

 Free energy of the ion-electron system (eV)
  ---------------------------------------------------
  alpha Z        PSCENC =       141.22081525
  Ewald energy   TEWEN  =     -2681.49754213
  -Hartree energ DENC   =     -1151.65502210
  -exchange      EXHF   =         0.00000000
  -V(xc)+E(xc)   XCENC  =       129.81825017
  PAW double counting   =      3386.53213595    -3342.90304296
  entropy T*S    EENTRO =        -0.00000000
  eigenvalues    EBANDS =      -554.72337011
  atomic energy  EATOM  =      4064.89301065
  Solvation  Ediel_sol  =         0.00000000
  ---------------------------------------------------
  free energy    TOTEN  =        -8.31476529 eV

  energy without entropy =       -8.31476528  energy(sigma->0) =       -8.31476529


--------------------------------------------------------------------------------------------------------




--------------------------------------- Iteration      1(  11)  ---------------------------------------


    POTLOK:  cpu time    0.0829: real time    0.0839
    SETDIJ:  cpu time    0.0053: real time    0.0053
     EDDAV:  cpu time    0.5807: real time    0.5808
       DOS:  cpu time    0.0004: real time    0.0004
    CHARGE:  cpu time    0.0566: real time    0.0566
    MIXING:  cpu time    0.0041: real time    0.0041
    --------------------------------------------
      LOOP:  cpu time    0.7300: real time    0.7311

 eigenvalue-minimisations  :  1902
 total energy-change (2. order) :-0.2344505E-04  (-0.3199494E-04)
 number of electron      42.0000002 magnetization 
 augmentation part        6.7127533 magnetization 

 Broyden mixing:
  rms(total) = 0.12103E-02    rms(broyden)= 0.12103E-02
  rms(prec ) = 0.21639E-02
  weight for this iteration     100.00

 eigenvalues of (default mixing * dielectric matrix)
  average eigenvalue GAMMA=   1.7297
  2.8182  2.2036  1.9595  1.2218  1.0875  1.0875

 Free energy of the ion-electron system (eV)
  ---------------------------------------------------
  alpha Z        PSCENC =       141.22081525
  Ewald energy   TEWEN  =     -2681.49754213
  -Hartree energ DENC   =     -1151.54893372
  -exchange      EXHF   =         0.00000000
  -V(xc)+E(xc)   XCENC  =       129.81658824
  PAW double counting   =      3389.37860673    -3345.72893973
  entropy T*S    EENTRO =        -0.00000000
  eigenvalues    EBANDS =      -554.84839402
  atomic energy  EATOM  =      4064.89301065
  Solvation  Ediel_sol  =         0.00000000
  ---------------------------------------------------
  free energy    TOTEN  =        -8.31478873 eV

  energy without entropy =       -8.31478873  energy(sigma->0) =       -8.31478873


--------------------------------------------------------------------------------------------------------




--------------------------------------- Iteration      1(  12)  ---------------------------------------


    POTLOK:  cpu time    0.0813: real time    0.0817
    SETDIJ:  cpu time    0.0053: real time    0.0053
     EDDAV:  cpu time    0.5112: real time    0.5116
       DOS:  cpu time    0.0004: real time    0.0004
    --------------------------------------------
      LOOP:  cpu time    0.5981: real time    0.5989

 eigenvalue-minimisations  :  1765
 total energy-change (2. order) : 0.2775025E-05  (-0.4273439E-05)
 number of electron      42.0000002 magnetization 
 augmentation part        6.7127533 magnetization 

 Free energy of the ion-electron system (eV)
  ---------------------------------------------------
  alpha Z        PSCENC =       141.22081525
  Ewald energy   TEWEN  =     -2681.49754213
  -Hartree energ DENC   =     -1151.61301397
  -exchange      EXHF   =         0.00000000
  -V(xc)+E(xc)   XCENC  =       129.81866482
  PAW double counting   =      3389.06821524    -3345.43473661
  entropy T*S    EENTRO =        -0.00000000
  eigenvalues    EBANDS =      -554.77019921
  atomic energy  EATOM  =      4064.89301065
  Solvation  Ediel_sol  =         0.00000000
  ---------------------------------------------------
  free energy    TOTEN  =        -8.31478596 eV

  energy without entropy =       -8.31478595  energy(sigma->0) =       -8.31478596


--------------------------------------------------------------------------------------------------------




 average (electrostatic) potential at core
  the test charge radii are     1.0856  1.1312  1.1045
  (the norm of the test charge is              1.0000)
       1-107.2322       2 -50.8057       3 -36.4479       4 -36.4479
 
 
 
 E-fermi :   2.0334     XC(G=0):  -7.6831     alpha+bet : -7.4589


 k-point     1 :       0.0000    0.0000    0.0000
  band No.  band energies     occupation 
      1     -29.1779      2.00000
      2     -29.1687      2.00000
      3     -21.0742      2.00000
      4     -19.0224      2.00000
      5     -19.0224      2.00000
      6     -19.0224      2.00000
      7     -19.0180      2.00000
      8     -19.0180      2.00000
      9     -12.7110      2.00000
     10     -12.7110      2.00000
     11     -12.7110      2.00000
     12     -12.6627      2.00000
     13     -12.6627      2.00000
     14     -12.6627      2.00000
     15      -7.9255      2.00000
     16      -7.9255      2.00000
     17      -7.9255      2.00000
     18      -7.0373      2.00000
     19       1.8609      2.00000
     20       1.8609      2.00000
     21       1.8609      2.00000
     22       2.1971      0.00000
     23       4.0118      0.00000
     24       4.0118      0.00000
     25       4.4279      0.00000

 k-point     2 :       0.1250    0.0000    0.0000
  band No.  band energies     occupation 
      1     -29.1775      2.00000
      2     -29.1691      2.00000
      3     -21.0743      2.00000
      4     -19.0224      2.00000
      5     -19.0224      2.00000
      6     -19.0223      2.00000
      7     -19.0180      2.00000
      8     -19.0180      2.00000
      9     -12.7110      2.00000
     10     -12.7095      2.00000
     11     -12.7095      2.00000
     12     -12.6649      2.00000
     13     -12.6649      2.00000
     14     -12.6638      2.00000
     15      -7.9440      2.00000
     16      -7.9244      2.00000
     17      -7.9244      2.00000
     18      -7.0072      2.00000
     19       1.3826      2.00000
     20       1.7903      2.00000
     21       1.7903      2.00000
     22       2.8193      0.00000
     23       4.2058      0.00000
     24       4.2059      0.00000
     25       4.3717      0.00000

 k-point     3 :       0.2500    0.0000    0.0000
  band No.  band energies     occupation 
      1     -29.1765      2.00000
      2     -29.1700      2.00000
      3     -21.0746      2.00000
      4     -19.0223      2.00000
      5     -19.0223      2.00000
      6     -19.0221      2.00000
      7     -19.0180      2.00000
      8     -19.0180      2.00000
      9     -12.7092      2.00000
     10     -12.7051      2.00000
     11     -12.7051      2.00000
     12     -12.6707      2.00000
     13     -12.6707      2.00000
     14     -12.6683      2.00000
     15      -7.9801      2.00000
     16      -7.9218      2.00000
     17      -7.9218      2.00000
     18      -6.9442      2.00000
     19       0.9530      2.00000
     20       1.6500      2.00000
     21       1.6500      2.00000
     22       3.5176      0.00000
     23       4.4726      0.00000
     24       4.6225      0.00000
     25       4.6657      0.00000

 k-point     4 :       0.3750    0.0000    0.0000
  band No.  band energies     occupation 
      1     -29.1750      2.00000
      2     -29.1715      2.00000
      3     -21.0749      2.00000
      4     -19.0222      2.00000
      5     -19.0222      2.00000
      6     -19.0220      2.00000
      7     -19.0180      2.00000
      8     -19.0180      2.00000
      9     -12.7035      2.00000
     10     -12.6981      2.00000
     11     -12.6981      2.00000
     12     -12.6791      2.00000
     13     -12.6791      2.00000
     14     -12.6768      2.00000
     15      -8.0071      2.00000
     16      -7.9193      2.00000
     17      -7.9193      2.00000
     18      -6.8923      2.00000
     19       0.6952      2.00000
     20       1.5373      2.00000
     21       1.5373      2.00000
     22       3.9103      0.00000
     23       4.8268      0.00000
     24       4.8271      0.00000
     25       5.1906      0.00000

 k-point     5 :       0.5000    0.0000    0.0000
  band No.  band energies     occupation 
      1     -29.1732      2.00000
      2     -29.1732      2.00000
      3     -21.0750      2.00000
      4     -19.0222      2.00000
      5     -19.0222      2.00000
      6     -19.0219      2.00000
      7     -19.0180      2.00000
      8     -19.0180      2.00000
      9     -12.6981      2.00000
     10     -12.6909      2.00000
     11     -12.6909      2.00000
     12     -12.6869      2.00000
     13     -12.6869      2.00000
     14     -12.6835      2.00000
     15      -8.0161      2.00000
     16      -7.9182      2.00000
     17      -7.9182      2.00000
     18      -6.8733      2.00000
     19       0.6078      2.00000
     20       1.4962      2.00000
     21       1.4962      2.00000
     22       4.1447      0.00000
     23       4.9467      0.00000
     24       4.9468      0.00000
     25       5.0332      0.00000

 k-point     6 :       0.1250    0.1250    0.0000
  band No.  band energies     occupation 
      1     -29.1774      2.00000
      2     -29.1692      2.00000
      3     -21.0743      2.00000
      4     -19.0223      2.00000
      5     -19.0223      2.00000
      6     -19.0223      2.00000
      7     -19.0180      2.00000
      8     -19.0180      2.00000
      9     -12.7140      2.00000
     10     -12.7140      2.00000
     11     -12.7014      2.00000
     12     -12.6728      2.00000
     13     -12.6610      2.00000
     14     -12.6610      2.00000
     15      -7.9477      2.00000
     16      -7.9243      2.00000
     17      -7.9243      2.00000
     18      -7.0004      2.00000
     19       1.2612      2.00000
     20       1.8400      2.00000
     21       1.8400      2.00000
     22       2.8360      0.00000
     23       4.1160      0.00000
     24       4.1775      0.00000
     25       4.4402      0.00000

 k-point     7 :       0.2500    0.1250    0.0000
  band No.  band energies     occupation 
      1     -29.1767      2.00000
      2     -29.1699      2.00000
      3     -21.0746      2.00000
      4     -19.0223      2.00000
      5     -19.0223      2.00000
      6     -19.0222      2.00000
      7     -19.0180      2.00000
      8     -19.0180      2.00000
      9     -12.7155      2.00000
     10     -12.7149      2.00000
     11     -12.6919      2.00000
     12     -12.6833      2.00000
     13     -12.6616      2.00000
     14     -12.6614      2.00000
     15      -7.9722      2.00000
     16      -7.9230      2.00000
     17      -7.9223      2.00000
     18      -6.9565      2.00000
     19       0.9785      2.00000
     20       1.7013      2.00000
     21       1.7626      2.00000
     22       3.3649      0.00000
     23       4.0550      0.00000
     24       4.3940      0.00000
     25       4.7459      0.00000

 k-point     8 :       0.3750    0.1250    0.0000
  band No.  band energies     occupation 
      1     -29.1754      2.00000
      2     -29.1711      2.00000
      3     -21.0749      2.00000
      4     -19.0222      2.00000
      5     -19.0222      2.00000
      6     -19.0220      2.00000
      7     -19.0180      2.00000
      8     -19.0180      2.00000
      9     -12.7134      2.00000
     10     -12.7117      2.00000
     11     -12.6946      2.00000
     12     -12.6815      2.00000
     13     -12.6667      2.00000
     14     -12.6662      2.00000
     15      -7.9945      2.00000
     16      -7.9225      2.00000
     17      -7.9198      2.00000
     18      -6.9105      2.00000
     19       0.7881      2.00000
     20       1.5206      2.00000
     21       1.6336      2.00000
     22       3.7918      0.00000
     23       4.4065      0.00000
     24       4.8621      0.00000
     25       4.9887      0.00000

 k-point     9 :       0.5000    0.1250    0.0000
  band No.  band energies     occupation 
      1     -29.1738      2.00000
      2     -29.1726      2.00000
      3     -21.0750      2.00000
      4     -19.0222      2.00000
      5     -19.0222      2.00000
      6     -19.0219      2.00000
      7     -19.0180      2.00000
      8     -19.0180      2.00000
      9     -12.7118      2.00000
     10     -12.7046      2.00000
     11     -12.6995      2.00000
     12     -12.6764      2.00000
     13     -12.6739      2.00000
     14     -12.6715      2.00000
     15      -8.0045      2.00000
     16      -7.9229      2.00000
     17      -7.9181      2.00000
     18      -6.8858      2.00000
     19       0.6995      2.00000
     20       1.4417      2.00000
     21       1.5338      2.00000
     22       4.1049      0.00000
     23       4.7780      0.00000
     24       4.9550      0.00000
     25       4.9667      0.00000

 k-point    10 :      -0.3750    0.1250    0.0000
  band No.  band energies     occupation 
      1     -29.1743      2.00000
      2     -29.1721      2.00000
      3     -21.0750      2.00000
      4     -19.0222      2.00000
      5     -19.0222      2.00000
      6     -19.0219      2.00000
      7     -19.0180      2.00000
      8     -19.0180      2.00000
      9     -12.7168      2.00000
     10     -12.6946      2.00000
     11     -12.6932      2.00000
     12     -12.6858      2.00000
     13     -12.6832      2.00000
     14     -12.6633      2.00000
     15      -8.0026      2.00000
     16      -7.9237      2.00000
     17      -7.9182      2.00000
     18      -6.8894      2.00000
     19       0.7165      2.00000
     20       1.4891      2.00000
     21       1.5008      2.00000
     22       4.0863      0.00000
     23       4.7525      0.00000
     24       4.7935      0.00000
     25       4.9940      0.00000

 k-point    11 :      -0.2500    0.1250    0.0000
  band No.  band energies     occupation 
      1     -29.1758      2.00000
      2     -29.1707      2.00000
      3     -21.0748      2.00000
      4     -19.0223      2.00000
      5     -19.0222      2.00000
      6     -19.0221      2.00000
      7     -19.0180      2.00000
      8     -19.0180      2.00000
      9     -12.7191      2.00000
     10     -12.6992      2.00000
     11     -12.6933      2.00000
     12     -12.6830      2.00000
     13     -12.6789      2.00000
     14     -12.6588      2.00000
     15      -7.9888      2.00000
     16      -7.9242      2.00000
     17      -7.9201      2.00000
     18      -6.9209      2.00000
     19       0.8450      2.00000
     20       1.5462      2.00000
     21       1.6376      2.00000
     22       3.7519      0.00000
     23       4.4108      0.00000
     24       4.5983      0.00000
     25       4.7907      0.00000

 k-point    12 :      -0.1250    0.1250    0.0000
  band No.  band energies     occupation 
      1     -29.1770      2.00000
      2     -29.1696      2.00000
      3     -21.0745      2.00000
      4     -19.0223      2.00000
      5     -19.0223      2.00000
      6     -19.0222      2.00000
      7     -19.0180      2.00000
      8     -19.0180      2.00000
      9     -12.7165      2.00000
     10     -12.7059      2.00000
     11     -12.7023      2.00000
     12     -12.6726      2.00000
     13     -12.6701      2.00000
     14     -12.6594      2.00000
     15      -7.9645      2.00000
     16      -7.9243      2.00000
     17      -7.9227      2.00000
     18      -6.9701      2.00000
     19       1.0917      2.00000
     20       1.6596      2.00000
     21       1.7896      2.00000
     22       3.2463      0.00000
     23       4.2503      0.00000
     24       4.3879      0.00000
     25       4.4911      0.00000

 k-point    13 :       0.2500    0.2500    0.0000
  band No.  band energies     occupation 
      1     -29.1763      2.00000
      2     -29.1702      2.00000
      3     -21.0748      2.00000
      4     -19.0222      2.00000
      5     -19.0222      2.00000
      6     -19.0222      2.00000
      7     -19.0180      2.00000
      8     -19.0180      2.00000
      9     -12.7211      2.00000
     10     -12.7211      2.00000
     11     -12.6969      2.00000
     12     -12.6782      2.00000
     13     -12.6569      2.00000
     14     -12.6569      2.00000
     15      -7.9769      2.00000
     16      -7.9213      2.00000
     17      -7.9213      2.00000
     18      -6.9486      2.00000
     19       0.8792      2.00000
     20       1.7986      2.00000
     21       1.7986      2.00000
     22       3.4298      0.00000
     23       3.6879      0.00000
     24       4.4268      0.00000
     25       4.9300      0.00000

 k-point    14 :       0.3750    0.2500    0.0000
  band No.  band energies     occupation 
      1     -29.1754      2.00000
      2     -29.1710      2.00000
      3     -21.0750      2.00000
      4     -19.0222      2.00000
      5     -19.0222      2.00000
      6     -19.0221      2.00000
      7     -19.0180      2.00000
      8     -19.0180      2.00000
      9     -12.7233      2.00000
     10     -12.7224      2.00000
     11     -12.7086      2.00000
     12     -12.6663      2.00000
     13     -12.6576      2.00000
     14     -12.6571      2.00000
     15      -7.9823      2.00000
     16      -7.9227      2.00000
     17      -7.9194      2.00000
     18      -6.9310      2.00000
     19       0.8463      2.00000
     20       1.6446      2.00000
     21       1.7332      2.00000
     22       3.5903      0.00000
     23       3.8885      0.00000
     24       4.7651      0.00000
     25       5.1657      0.00000

 k-point    15 :       0.5000    0.2500    0.0000
  band No.  band energies     occupation 
      1     -29.1743      2.00000
      2     -29.1721      2.00000
      3     -21.0752      2.00000
      4     -19.0222      2.00000
      5     -19.0221      2.00000
      6     -19.0220      2.00000
      7     -19.0180      2.00000
      8     -19.0179      2.00000
      9     -12.7265      2.00000
     10     -12.7182      2.00000
     11     -12.7105      2.00000
     12     -12.6646      2.00000
     13     -12.6618      2.00000
     14     -12.6571      2.00000
     15      -7.9802      2.00000
     16      -7.9306      2.00000
     17      -7.9178      2.00000
     18      -6.9152      2.00000
     19       0.8956      2.00000
     20       1.4007      2.00000
     21       1.6257      2.00000
     22       3.7911      0.00000
     23       4.5059      0.00000
     24       4.7960      0.00000
     25       5.0208      0.00000

 k-point    16 :      -0.3750    0.2500    0.0000
  band No.  band energies     occupation 
      1     -29.1734      2.00000
      2     -29.1729      2.00000
      3     -21.0752      2.00000
      4     -19.0222      2.00000
      5     -19.0221      2.00000
      6     -19.0220      2.00000
      7     -19.0180      2.00000
      8     -19.0179      2.00000
      9     -12.7298      2.00000
     10     -12.7091      2.00000
     11     -12.7021      2.00000
     12     -12.6761      2.00000
     13     -12.6702      2.00000
     14     -12.6520      2.00000
     15      -7.9787      2.00000
     16      -7.9371      2.00000
     17      -7.9173      2.00000
     18      -6.9052      2.00000
     19       0.9103      2.00000
     20       1.3188      2.00000
     21       1.5376      2.00000
     22       4.1982      0.00000
     23       4.4028      0.00000
     24       4.8743      0.00000
     25       5.1228      0.00000

 k-point    17 :      -0.2500    0.2500    0.0000
  band No.  band energies     occupation 
      1     -29.1747      2.00000
      2     -29.1717      2.00000
      3     -21.0750      2.00000
      4     -19.0222      2.00000
      5     -19.0221      2.00000
      6     -19.0220      2.00000
      7     -19.0180      2.00000
      8     -19.0179      2.00000
      9     -12.7273      2.00000
     10     -12.6966      2.00000
     11     -12.6905      2.00000
     12     -12.6886      2.00000
     13     -12.6812      2.00000
     14     -12.6524      2.00000
     15      -7.9862      2.00000
     16      -7.9320      2.00000
     17      -7.9183      2.00000
     18      -6.9055      2.00000
     19       0.8414      2.00000
     20       1.4712      2.00000
     21       1.5055      2.00000
     22       4.1279      0.00000
     23       4.5256      0.00000
     24       4.6464      0.00000
     25       4.6877      0.00000

 k-point    18 :       0.3750    0.3750    0.0000
  band No.  band energies     occupation 
      1     -29.1751      2.00000
      2     -29.1712      2.00000
      3     -21.0752      2.00000
      4     -19.0221      2.00000
      5     -19.0221      2.00000
      6     -19.0220      2.00000
      7     -19.0179      2.00000
      8     -19.0179      2.00000
      9     -12.7281      2.00000
     10     -12.7281      2.00000
     11     -12.7209      2.00000
     12     -12.6547      2.00000
     13     -12.6528      2.00000
     14     -12.6528      2.00000
     15      -7.9775      2.00000
     16      -7.9185      2.00000
     17      -7.9185      2.00000
     18      -6.9441      2.00000
     19       0.8894      2.00000
     20       1.7673      2.00000
     21       1.7673      2.00000
     22       3.2931      0.00000
     23       3.7999      0.00000
     24       4.9362      0.00000
     25       4.9517      0.00000

 k-point    19 :       0.5000    0.3750    0.0000
  band No.  band energies     occupation 
      1     -29.1746      2.00000
      2     -29.1718      2.00000
      3     -21.0753      2.00000
      4     -19.0221      2.00000
      5     -19.0221      2.00000
      6     -19.0220      2.00000
      7     -19.0179      2.00000
      8     -19.0179      2.00000
      9     -12.7332      2.00000
     10     -12.7276      2.00000
     11     -12.7220      2.00000
     12     -12.6550      2.00000
     13     -12.6539      2.00000
     14     -12.6480      2.00000
     15      -7.9692      2.00000
     16      -7.9248      2.00000
     17      -7.9174      2.00000
     18      -6.9440      2.00000
     19       0.9858      2.00000
     20       1.5868      2.00000
     21       1.7184      2.00000
     22       3.3733      0.00000
     23       3.9542      0.00000
     24       4.8610      0.00000
     25       5.2360      0.00000

[...]
     11     -12.7807      2.00000
     12     -12.7163      2.00000
     13     -12.7153      2.00000
     14     -12.7097      2.00000
     15      -8.0239      2.00000
     16      -7.9817      2.00000
     17      -7.9747      2.00000
     18      -6.9925      2.00000
     19       0.9397      2.00000
     20       1.5376      2.00000
     21       1.6692      2.00000
     22       3.3195      0.00000
     23       3.8775      0.00000
     24       4.7889      0.00000
     25       5.1716      0.00000

 k-point    20 :      -0.3750    0.3750    0.0000
  band No.  band energies     occupation 
      1     -29.2356      2.00000
      2     -29.2345      2.00000
      3     -21.1336      2.00000
      4     -19.0789      2.00000
      5     -19.0788      2.00000
      6     -19.0788      2.00000
      7     -19.0748      2.00000
      8     -19.0748      2.00000
      9     -12.7936      2.00000
     10     -12.7795      2.00000
     11     -12.7725      2.00000
     12     -12.7247      2.00000
     13     -12.7212      2.00000
     14     -12.7086      2.00000
     15      -8.0107      2.00000
     16      -8.0023      2.00000
     17      -7.9742      2.00000
     18      -6.9778      2.00000
     19       1.0753      2.00000
     20       1.1976      2.00000
     21       1.5788      2.00000
     22       3.6653      0.00000
     23       4.2150      0.00000
     24       4.8703      0.00000
     25       5.0186      0.00000

 k-point    21 :       0.5000    0.5000    0.0000
  band No.  band energies     occupation 
      1     -29.2365      2.00000
      2     -29.2336      2.00000
      3     -21.1337      2.00000
      4     -19.0788      2.00000
      5     -19.0788      2.00000
      6     -19.0787      2.00000
      7     -19.0748      2.00000
      8     -19.0747      2.00000
      9     -12.7892      2.00000
     10     -12.7892      2.00000
     11     -12.7891      2.00000
     12     -12.7127      2.00000
     13     -12.7127      2.00000
     14     -12.7068      2.00000
     15      -8.0244      2.00000
     16      -7.9746      2.00000
     17      -7.9746      2.00000
     18      -7.0035      2.00000
     19       0.9478      2.00000
     20       1.7060      2.00000
     21       1.7060      2.00000
     22       3.0966      0.00000
     23       3.6675      0.00000
     24       4.7923      0.00000
     25       5.4552      0.00000

 k-point    22 :       0.3750    0.2500    0.1250
  band No.  band energies     occupation 
      1     -29.2376      2.00000
      2     -29.2327      2.00000
      3     -21.1332      2.00000
      4     -19.0790      2.00000
      5     -19.0790      2.00000
      6     -19.0789      2.00000
      7     -19.0749      2.00000
      8     -19.0749      2.00000
      9     -12.7815      2.00000
     10     -12.7699      2.00000
     11     -12.7555      2.00000
     12     -12.7404      2.00000
     13     -12.7286      2.00000
     14     -12.7169      2.00000
     15      -8.0367      2.00000
     16      -7.9812      2.00000
     17      -7.9775      2.00000
     18      -6.9792      2.00000
     19       0.8152      2.00000
     20       1.5678      2.00000
     21       1.6339      2.00000
     22       3.6639      0.00000
     23       3.8955      0.00000
     24       4.6251      0.00000
     25       4.7793      0.00000

 k-point    23 :       0.5000    0.2500    0.1250
  band No.  band energies     occupation 
      1     -29.2364      2.00000
      2     -29.2338      2.00000
      3     -21.1334      2.00000
      4     -19.0790      2.00000
      5     -19.0789      2.00000
      6     -19.0788      2.00000
      7     -19.0749      2.00000
      8     -19.0748      2.00000
      9     -12.7847      2.00000
     10     -12.7664      2.00000
     11     -12.7613      2.00000
     12     -12.7383      2.00000
     13     -12.7297      2.00000
     14     -12.7164      2.00000
     15      -8.0403      2.00000
     16      -7.9850      2.00000
     17      -7.9764      2.00000
     18      -6.9587      2.00000
     19       0.7927      2.00000
     20       1.4172      2.00000
     21       1.5151      2.00000
     22       3.9266      0.00000
     23       4.3241      0.00000
     24       4.6547      0.00000
     25       5.0025      0.00000

 k-point    24 :      -0.3750    0.2500    0.1250
  band No.  band energies     occupation 
      1     -29.2351      2.00000
      2     -29.2351      2.00000
      3     -21.1335      2.00000
      4     -19.0789      2.00000
      5     -19.0789      2.00000
      6     -19.0787      2.00000
      7     -19.0749      2.00000
      8     -19.0748      2.00000
      9     -12.7850      2.00000
     10     -12.7709      2.00000
     11     -12.7521      2.00000
     12     -12.7482      2.00000
     13     -12.7219      2.00000
     14     -12.7205      2.00000
     15      -8.0398      2.00000
     16      -7.9873      2.00000
     17      -7.9759      2.00000
     18      -6.9518      2.00000
     19       0.8045      2.00000
     20       1.3243      2.00000
     21       1.4840      2.00000
     22       4.1766      0.00000
     23       4.3284      0.00000
     24       4.8874      0.00000
     25       4.9002      0.00000

 k-point    25 :       0.5000    0.3750    0.1250
  band No.  band energies     occupation 
      1     -29.2365      2.00000
      2     -29.2337      2.00000
      3     -21.1335      2.00000
      4     -19.0789      2.00000
      5     -19.0789      2.00000
      6     -19.0788      2.00000
      7     -19.0748      2.00000
      8     -19.0748      2.00000
      9     -12.7904      2.00000
     10     -12.7759      2.00000
     11     -12.7757      2.00000
     12     -12.7254      2.00000
     13     -12.7173      2.00000
     14     -12.7132      2.00000
     15      -8.0293      2.00000
     16      -7.9815      2.00000
     17      -7.9783      2.00000
     18      -6.9793      2.00000
     19       0.8761      2.00000
     20       1.5400      2.00000
     21       1.5557      2.00000
     22       3.5993      0.00000
     23       3.9893      0.00000
     24       4.7690      0.00000
     25       5.0397      0.00000

 k-point    26 :      -0.3750    0.3750    0.1250
  band No.  band energies     occupation 
      1     -29.2356      2.00000
      2     -29.2345      2.00000
      3     -21.1336      2.00000
      4     -19.0789      2.00000
      5     -19.0788      2.00000
      6     -19.0787      2.00000
      7     -19.0749      2.00000
      8     -19.0748      2.00000
      9     -12.7952      2.00000
     10     -12.7777      2.00000
     11     -12.7650      2.00000
     12     -12.7365      2.00000
     13     -12.7141      2.00000
     14     -12.7113      2.00000
     15      -8.0169      2.00000
     16      -7.9937      2.00000
     17      -7.9788      2.00000
     18      -6.9742      2.00000
     19       1.0166      2.00000
     20       1.2806      2.00000
     21       1.4983      2.00000
     22       3.8671      0.00000
     23       4.2249      0.00000
     24       4.6850      0.00000
     25       4.9100      0.00000

 k-point    27 :      -0.2500    0.3750    0.1250
  band No.  band energies     occupation 
      1     -29.2355      2.00000
      2     -29.2347      2.00000
      3     -21.1336      2.00000
      4     -19.0789      2.00000
      5     -19.0788      2.00000
      6     -19.0788      2.00000
      7     -19.0749      2.00000
      8     -19.0748      2.00000
      9     -12.7933      2.00000
     10     -12.7739      2.00000
     11     -12.7515      2.00000
     12     -12.7496      2.00000
     13     -12.7200      2.00000
     14     -12.7109      2.00000
     15      -8.0214      2.00000
     16      -7.9960      2.00000
     17      -7.9775      2.00000
     18      -6.9654      2.00000
     19       0.9664      2.00000
     20       1.2628      2.00000
     21       1.4692      2.00000
     22       4.1673      0.00000
     23       4.3739      0.00000
     24       4.3796      0.00000
     25       5.0521      0.00000

 k-point    28 :      -0.3750    0.5000    0.1250
  band No.  band energies     occupation 
      1     -29.2361      2.00000
      2     -29.2341      2.00000
      3     -21.1337      2.00000
      4     -19.0788      2.00000
      5     -19.0788      2.00000
      6     -19.0787      2.00000
      7     -19.0748      2.00000
      8     -19.0748      2.00000
      9     -12.7967      2.00000
     10     -12.7817      2.00000
     11     -12.7781      2.00000
     12     -12.7240      2.00000
     13     -12.7119      2.00000
     14     -12.7076      2.00000
     15      -8.0169      2.00000
     16      -7.9817      2.00000
     17      -7.9814      2.00000
     18      -6.9909      2.00000
     19       1.0118      2.00000
     20       1.5033      2.00000
     21       1.5250      2.00000
     22       3.4905      0.00000
     23       3.8992      0.00000
     24       4.8174      0.00000
     25       5.0985      0.00000

 k-point    29 :      -0.2500    0.5000    0.2500
  band No.  band energies     occupation 
      1     -29.2351      2.00000
      2     -29.2351      2.00000
      3     -21.1337      2.00000
      4     -19.0788      2.00000
      5     -19.0788      2.00000
      6     -19.0788      2.00000
      7     -19.0749      2.00000
      8     -19.0748      2.00000
      9     -12.7998      2.00000
     10     -12.7787      2.00000
     11     -12.7512      2.00000
     12     -12.7512      2.00000
     13     -12.7104      2.00000
     14     -12.7091      2.00000
     15      -7.9991      2.00000
     16      -7.9991      2.00000
     17      -7.9881      2.00000
     18      -6.9784      2.00000
     19       1.2052      2.00000
     20       1.2052      2.00000
     21       1.3764      2.00000
     22       4.0699      0.00000
     23       4.3091      0.00000
     24       4.3091      0.00000
     25       4.8400      0.00000


--------------------------------------------------------------------------------------------------------


 soft charge-density along one line, spin component           1
         0         1         2         3         4         5         6         7         8         9
 total charge-density along one line
 
 pseudopotential strength for first ion, spin component:           1
-19.440  -0.000   0.000  -0.000   0.000   5.064   0.000  -0.000
 -0.000 -19.440  -0.000  -0.000   0.000   0.000   5.064   0.000
  0.000  -0.000 -19.439  -0.000  -0.000  -0.000   0.000   5.064
 -0.000  -0.000  -0.000 -19.440  -0.000   0.000   0.000   0.000
  0.000   0.000  -0.000  -0.000 -19.439  -0.000  -0.000   0.000
  5.064   0.000  -0.000   0.000  -0.000   5.264  -0.000   0.000
  0.000   5.064   0.000   0.000  -0.000  -0.000   5.264  -0.000
 -0.000   0.000   5.064   0.000   0.000   0.000  -0.000   5.264
  0.000   0.000   0.000   5.064   0.000  -0.000  -0.000  -0.000
 -0.000  -0.000   0.000   0.000   5.064  -0.000   0.000  -0.000
  0.000   0.000  -0.000   0.000  -0.000   0.000   0.000  -0.000
  0.000   0.000  -0.000   0.000  -0.000  -0.000  -0.000   0.000
  0.000   0.000  -0.000   0.000  -0.000   0.000   0.000  -0.000
  0.000   0.000   0.000   0.000   0.000   0.000   0.000   0.000
  0.000   0.000  -0.000   0.000   0.000   0.000   0.000  -0.000
  0.000   0.000  -0.000   0.000  -0.000   0.000   0.000  -0.000
  0.000   0.000   0.000   0.000   0.000   0.000   0.000   0.000
  0.000   0.000  -0.000   0.000   0.000   0.000   0.000  -0.000
 total augmentation occupancy for first ion, spin component:           1
  1.999  -0.000  -0.000  -0.000   0.000   0.002  -0.000   0.000  -0.000   0.000  -0.000   0.000   0.000   0.000   0.000  -0.000
 -0.000   1.999  -0.000   0.000   0.000  -0.000   0.002  -0.000  -0.000  -0.000   0.000   0.000  -0.000  -0.000  -0.000   0.000
 -0.000  -0.000   1.998  -0.000   0.000  -0.000  -0.000   0.002  -0.000   0.000   0.000   0.000  -0.000  -0.000  -0.000   0.000
 -0.000   0.000  -0.000   1.999  -0.000  -0.000   0.000  -0.000   0.002  -0.000   0.000   0.000   0.000   0.000   0.000  -0.000
 -0.000   0.000   0.000  -0.000   1.998  -0.000  -0.000  -0.000   0.000   0.002   0.000   0.000   0.000  -0.000  -0.000   0.000
  0.002  -0.000   0.000  -0.000  -0.000   0.000  -0.000   0.000  -0.000   0.000   0.000   0.000  -0.000  -0.000  -0.000  -0.000
 -0.000   0.002  -0.000   0.000  -0.000   0.000   0.000  -0.000   0.000  -0.000  -0.000   0.000  -0.000   0.000   0.000   0.000
  0.000  -0.000   0.002  -0.000   0.000   0.000  -0.000   0.000  -0.000   0.000   0.000  -0.000  -0.000   0.000  -0.000   0.000
 -0.000   0.000  -0.000   0.002   0.000  -0.000  -0.000  -0.000   0.000  -0.000   0.000   0.000   0.000  -0.000   0.000  -0.000
 -0.000   0.000   0.000  -0.000   0.002   0.000  -0.000   0.000  -0.000   0.000   0.000   0.000  -0.000  -0.000   0.000  -0.000
  0.000   0.000   0.000   0.000   0.000   0.000   0.000   0.000  -0.000  -0.000   1.924   0.022   0.000   0.000  -0.000   0.000
  0.000  -0.000   0.000   0.000   0.000   0.000  -0.000  -0.000   0.000   0.000   0.022   0.001   0.000   0.000   0.000  -0.000
 -0.000   0.000  -0.000   0.000  -0.000   0.000   0.000   0.000  -0.000   0.000  -0.000   0.000   1.407   0.000  -0.000  -0.065
  0.000   0.000   0.000   0.000  -0.000   0.000   0.000  -0.000  -0.000   0.000  -0.000   0.000   0.000   1.407   0.000  -0.000
  0.000   0.000   0.000  -0.000   0.000  -0.000  -0.000   0.000   0.000   0.000  -0.000  -0.000   0.000  -0.000   1.407   0.000
 -0.000   0.000   0.000  -0.000   0.000   0.000   0.000  -0.000  -0.000   0.000   0.000  -0.000  -0.065  -0.000   0.000   0.003
  0.000  -0.000  -0.000   0.000  -0.000  -0.000   0.000   0.000  -0.000  -0.000   0.000  -0.000   0.000  -0.065  -0.000   0.000
  0.000  -0.000   0.000  -0.000   0.000  -0.000  -0.000   0.000   0.000   0.000  -0.000  -0.000  -0.000  -0.000  -0.065  -0.000


------------------------ aborting loop because EDIFF is reached ----------------------------------------


    CHARGE:  cpu time    0.0565: real time    0.0566
    FORLOC:  cpu time    0.0082: real time    0.0082
    FORNL :  cpu time    0.0792: real time    0.0793
    STRESS:  cpu time    0.2734: real time    0.2736
    FORCOR:  cpu time    0.0851: real time    0.0852
    FORHAR:  cpu time    0.0234: real time    0.0234
    MIXING:  cpu time    0.0136: real time    0.0136
    OFIELD:  cpu time    0.0000: real time    0.0000

  FORCE on cell =-STRESS in cart. coord.  units (eV):
  Direction    XX          YY          ZZ          XY          YZ          ZX
  --------------------------------------------------------------------------------------
  Alpha Z   139.65822   139.65822   139.65822
  Ewald    -890.52430  -890.52430  -890.52430     0.00010     0.00010     0.00010
  Hartree   385.85080   385.85080   385.85080     0.00002     0.00002     0.00002
  E(xc)    -180.75451  -180.75451  -180.75451     0.00000     0.00000     0.00000
  Local     -98.63918   -98.63918   -98.63918    -0.00013    -0.00013    -0.00013
  n-local     1.73671     1.78093     0.27608     1.21063    -0.98355     0.63824
  augment   137.42455   137.42455   137.42455     0.00001     0.00001     0.00001
  Kinetic   506.66780   506.22897   504.25596     2.25784    -1.89412     1.31889
  Fock        0.00000     0.00000     0.00000     0.00000     0.00000     0.00000
  -------------------------------------------------------------------------------------
  Total      -0.00228    -0.00228    -0.00228    -0.00000    -0.00000    -0.00000
  in kB      -0.02057    -0.02057    -0.02057    -0.00000    -0.00000    -0.00000
  external pressure =       -0.02 kB  Pullay stress =        0.00 kB


 VOLUME and BASIS-vectors are now :
 -----------------------------------------------------------------------------
  energy-cutoff  :      520.00
  volume of cell :      177.36
      direct lattice vectors                 reciprocal lattice vectors
    -0.000000000  4.459359529  4.459359529    -0.112123725  0.112123725  0.112123725
     4.459359529  0.000000000  4.459359529     0.112123725 -0.112123725  0.112123725
     4.459359529  4.459359529 -0.000000000     0.112123725  0.112123725 -0.112123725

  length of vectors
     6.306486725  6.306486725  6.306486725     0.194203988  0.194203988  0.194203988


 FORCES acting on ions
    electron-ion (+dipol)            ewald-force                    non-local-force                 convergence-correction
 -----------------------------------------------------------------------------------------------
   -.205E-02 -.205E-02 -.192E-02   -.507E-03 -.507E-03 -.507E-03   -.116E-20 -.244E-20 0.127E-20   -.871E-07 -.871E-07 -.758E-07
   -.619E-03 -.619E-03 -.544E-03   -.175E-03 -.175E-03 -.175E-03   0.741E-21 0.529E-21 0.212E-21   -.113E-07 -.113E-07 -.126E-07
   0.166E-02 0.166E-02 0.176E-02   0.276E-03 0.276E-03 0.276E-03   -.173E-17 0.173E-17 0.260E-17   0.109E-06 0.109E-06 0.119E-06
   0.236E-02 0.236E-02 0.246E-02   0.406E-03 0.406E-03 0.406E-03   0.347E-17 -.520E-17 -.865E-18   0.153E-06 0.153E-06 0.163E-06
 -----------------------------------------------------------------------------------------------
   0.136E-02 0.136E-02 0.175E-02   -.224E-15 0.527E-15 -.158E-14   0.173E-17 -.347E-17 0.174E-17   0.165E-06 0.165E-06 0.193E-06
 
 
 POSITION                                       TOTAL-FORCE (eV/Angst)
 -----------------------------------------------------------------------------------
      2.22968      2.22968      2.22968        -0.000000     -0.000000     -0.000000
      6.68904      6.68904      6.68904         0.000000      0.000000      0.000000
      0.00000      0.00000      0.00000         0.000000      0.000000      0.000000
      4.45936      4.45936      4.45936        -0.000000     -0.000000     -0.000000
 -----------------------------------------------------------------------------------
    total drift:                                0.001357      0.001357      0.001755


--------------------------------------------------------------------------------------------------------



  FREE ENERGIE OF THE ION-ELECTRON SYSTEM (eV)
  ---------------------------------------------------
  free  energy   TOTEN  =        -8.31576500 eV

  energy  without entropy=       -8.31576498  energy(sigma->0) =       -8.31576499
 
 d Force = 0.0000000E+00[ 0.000E+00, 0.000E+00]  d Energy = 0.9159275E-04-0.916E-04
 d Force = 0.0000000E+00[ 0.000E+00, 0.000E+00]  d Ewald  =-0.2204960E+01 0.220E+01


--------------------------------------------------------------------------------------------------------


    POTLOK:  cpu time    0.0874: real time    0.0875


--------------------------------------------------------------------------------------------------------




--------------------------------------------------------------------------------------------------------


  
 reached required accuracy - stopping structural energy minimisation
     LOOP+:  cpu time    3.9350: real time    3.9512
    4ORBIT:  cpu time    0.0000: real time    0.0000

 total amount of memory used by VASP MPI-rank0    60724. kBytes
=======================================================================

   base      :      30000. kBytes
   nonl-proj :       8638. kBytes
   fftplans  :       4868. kBytes
   grid      :       9037. kBytes
   one-center:         15. kBytes
   wavefun   :       8166. kBytes
 
  
  
 General timing and accounting informations for this job:
 ========================================================
  
                  Total CPU time used (sec):       35.139
                            User time (sec):       33.966
                          System time (sec):        1.173
                         Elapsed time (sec):       35.698
  
                   Maximum memory used (kb):      121820.
                   Average memory used (kb):           0.
  
                          Minor page faults:        54276
                          Major page faults:            0
                 Voluntary context switches:          641
