<?xml version="1.0" encoding="ISO-8859-1"?>
<modeling>
 <generator>
  <i name="program" type="string">vasp </i>
  <i name="version" type="string">5.4.4.18Apr17-6-g9f103f2a35  </i>
  <i name="subversion" type="string">(build Jun 23 2019 17:35:09) complex            parallel </i>
  <i name="platform" type="string">LinuxIFC </i>
  <i name="date" type="string">2020 01 14 </i>
  <i name="time" type="string">23:14:44 </i>
 </generator>
 <incar>
  <i type="int" name="ISTART">     0</i>
  <i type="string" name="PREC">acc</i>
  <i type="string" name="ALGO"> Normal</i>
  <i type="int" name="ISPIN">     1</i>
  <i type="int" name="NELMIN">     5</i>
  <i type="int" name="IBRION">     2</i>
  <i name="EDIFF">      0.00001000</i>
  <i name="EDIFFG">     -0.00100000</i>
  <i type="int" name="NSW">   100</i>
  <i type="int" name="ISIF">     3</i>
  <i name="ENCUT">    520.00000000</i>
  <i type="logical" name="LREAL"> F  </i>
  <i type="logical" name="LPLANE"> T  </i>
  <i type="int" name="ISMEAR">     0</i>
  <i name="SIGMA">      0.05000000</i>
  <i type="logical" name="LWAVE"> F  </i>
  <i type="logical" name="LCHARG"> F  </i>
  <v type="int" name="KPOINT_BSE">    -1     0     0     0</v>
  <i type="string" name="GGA"> PE</i>
 </incar>
 <structure name="primitive_cell" >
  <crystal>
   <varray name="basis" >
    <v>       0.00000000       4.44285100       4.44285100 </v>
    <v>       4.44285100       0.00000000       4.44285100 </v>
    <v>       4.44285100       4.44285100       0.00000000 </v>
   </varray>
   <i name="volume">    175.39420542 </i>
   <varray name="rec_basis" >
    <v>      -0.11254035       0.11254035       0.11254035 </v>
    <v>       0.11254035      -0.11254035       0.11254035 </v>
    <v>       0.11254035       0.11254035      -0.11254035 </v>
   </varray>
  </crystal>
  <varray name="positions" >
   <v>       0.25000051       0.25000051       0.25000051 </v>
   <v>       0.49999989       0.49999989       0.49999989 </v>
   <v>       0.00000000       0.00000000       0.00000000 </v>
   <v>      -0.24999961      -0.24999961      -0.24999961 </v>
  </varray>
 </structure>
 <varray name="primitive_index" >
  <v type="int" >        1 </v>
  <v type="int" >        4 </v>
  <v type="int" >        3 </v>
  <v type="int" >        2 </v>
 </varray>
 <kpoints>
  <generation param="Gamma">
   <v type="int" name="divisions">       8        8        8 </v>
   <v name="usershift">      0.00000000       0.00000000       0.00000000 </v>
   <v name="genvec1">      0.12500000       0.00000000       0.00000000 </v>
   <v name="genvec2">      0.00000000       0.12500000       0.00000000 </v>
   <v name="genvec3">      0.00000000       0.00000000       0.12500000 </v>
   <v name="shift">      0.00000000       0.00000000       0.00000000 </v>
  </generation>
  <varray name="kpointlist" >
   <v>       0.00000000       0.00000000       0.00000000 </v>
   <v>       0.12500000       0.00000000       0.00000000 </v>
   <v>       0.25000000       0.00000000       0.00000000 </v>
   <v>       0.37500000       0.00000000       0.00000000 </v>
   <v>       0.50000000       0.00000000       0.00000000 </v>
   <v>       0.12500000       0.12500000       0.00000000 </v>
   <v>       0.25000000       0.12500000       0.00000000 </v>
   <v>       0.37500000       0.12500000       0.00000000 </v>
   <v>       0.50000000       0.12500000       0.00000000 </v>
   <v>      -0.37500000       0.12500000       0.00000000 </v>
   <v>      -0.25000000       0.12500000       0.00000000 </v>
   <v>      -0.12500000       0.12500000       0.00000000 </v>
   <v>       0.25000000       0.25000000       0.00000000 </v>
   <v>       0.37500000       0.25000000       0.00000000 </v>
   <v>       0.50000000       0.25000000       0.00000000 </v>
   <v>      -0.37500000       0.25000000       0.00000000 </v>
   <v>      -0.25000000       0.25000000       0.00000000 </v>
   <v>       0.37500000       0.37500000       0.00000000 </v>
   <v>       0.50000000       0.37500000       0.00000000 </v>
   <v>      -0.37500000       0.37500000       0.00000000 </v>
   <v>       0.50000000       0.50000000       0.00000000 </v>
   <v>       0.37500000       0.25000000       0.12500000 </v>
   <v>       0.50000000       0.25000000       0.12500000 </v>
   <v>      -0.37500000       0.25000000       0.12500000 </v>
   <v>       0.50000000       0.37500000       0.12500000 </v>
   <v>      -0.37500000       0.37500000       0.12500000 </v>
   <v>      -0.25000000       0.37500000       0.12500000 </v>
   <v>      -0.37500000       0.50000000       0.12500000 </v>
   <v>      -0.25000000       0.50000000       0.25000000 </v>
  </varray>
  <varray name="weights" >
   <v>       0.00195312 </v>
   <v>       0.01562500 </v>
   <v>       0.01562500 </v>
   <v>       0.01562500 </v>
   <v>       0.00781250 </v>
   <v>       0.01171875 </v>
   <v>       0.04687500 </v>
   <v>       0.04687500 </v>
   <v>       0.04687500 </v>
   <v>       0.04687500 </v>
   <v>       0.04687500 </v>
   <v>       0.02343750 </v>
   <v>       0.01171875 </v>
   <v>       0.04687500 </v>
   <v>       0.04687500 </v>
   <v>       0.04687500 </v>
   <v>       0.02343750 </v>
   <v>       0.01171875 </v>
   <v>       0.04687500 </v>
   <v>       0.02343750 </v>
   <v>       0.00585938 </v>
   <v>       0.04687500 </v>
   <v>       0.09375000 </v>
   <v>       0.04687500 </v>
   <v>       0.04687500 </v>
   <v>       0.09375000 </v>
   <v>       0.04687500 </v>
   <v>       0.02343750 </v>
   <v>       0.01171875 </v>
  </varray>
 </kpoints>
 <parameters>
  <separator name="general" >
   <i type="string" name="SYSTEM">unknown system</i>
   <i type="logical" name="LCOMPAT"> F  </i>
  </separator>
  <separator name="electronic" >
   <i type="string" name="PREC">acc</i>
   <i name="ENMAX">    520.00000000</i>
   <i name="ENAUG">    442.89900000</i>
   <i name="EDIFF">      0.00001000</i>
   <i type="int" name="IALGO">    38</i>
   <i type="int" name="IWAVPR">    11</i>
   <i type="int" name="NBANDS">    25</i>
   <i name="NELECT">     42.00000000</i>
   <i type="int" name="TURBO">     0</i>
   <i type="int" name="IRESTART">     0</i>
   <i type="int" name="NREBOOT">     0</i>
   <i type="int" name="NMIN">     0</i>
   <i name="EREF">      0.00000000</i>
   <separator name="electronic smearing" >
    <i type="int" name="ISMEAR">     0</i>
    <i name="SIGMA">      0.05000000</i>
    <i name="KSPACING">      0.50000000</i>
    <i type="logical" name="KGAMMA"> T  </i>
   </separator>
   <separator name="electronic projectors" >
    <i type="logical" name="LREAL"> F  </i>
    <v name="ROPT">      0.00000000      0.00000000      0.00000000</v>
    <i type="int" name="LMAXPAW">  -100</i>
    <i type="int" name="LMAXMIX">     2</i>
    <i type="logical" name="NLSPLINE"> F  </i>
   </separator>
   <separator name="electronic startup" >
    <i type="int" name="ISTART">     0</i>
    <i type="int" name="ICHARG">     2</i>
    <i type="int" name="INIWAV">     1</i>
   </separator>
   <separator name="electronic spin" >
    <i type="int" name="ISPIN">     1</i>
    <i type="logical" name="LNONCOLLINEAR"> F  </i>
    <v name="MAGMOM">      1.00000000      1.00000000      1.00000000      1.00000000</v>
    <i name="NUPDOWN">     -1.00000000</i>
    <i type="logical" name="LSORBIT"> F  </i>
    <v name="SAXIS">      0.00000000      0.00000000      1.00000000</v>
    <i type="logical" name="LSPIRAL"> F  </i>
    <v name="QSPIRAL">      0.00000000      0.00000000      0.00000000</v>
    <i type="logical" name="LZEROZ"> F  </i>
   </separator>
   <separator name="electronic exchange-correlation" >
    <i type="logical" name="LASPH"> F  </i>
    <i type="logical" name="LMETAGGA"> F  </i>
   </separator>
   <separator name="electronic convergence" >
    <i type="int" name="NELM">    60</i>
    <i type="int" name="NELMDL">    -5</i>
    <i type="int" name="NELMIN">     5</i>
    <i name="ENINI">    520.00000000</i>
    <separator name="electronic convergence detail" >
     <i type="logical" name="LDIAG"> T  </i>
     <i type="logical" name="LSUBROT"> F  </i>
     <i name="WEIMIN">      0.00100000</i>
     <i name="EBREAK">      0.00000010</i>
     <i name="DEPER">      0.30000000</i>
     <i type="int" name="NRMM">     4</i>
     <i name="TIME">      0.40000000</i>
    </separator>
   </separator>
   <separator name="electronic mixer" >
    <i name="AMIX">      0.40000000</i>
    <i name="BMIX">      1.00000000</i>
    <i name="AMIN">      0.10000000</i>
    <i name="AMIX_MAG">      1.60000000</i>
    <i name="BMIX_MAG">      1.00000000</i>
    <separator name="electronic mixer details" >
     <i type="int" name="IMIX">     4</i>
     <i type="logical" name="MIXFIRST"> F  </i>
     <i type="int" name="MAXMIX">   -45</i>
     <i name="WC">    100.00000000</i>
     <i type="int" name="INIMIX">     1</i>
     <i type="int" name="MIXPRE">     1</i>
     <i type="int" name="MREMOVE">     5</i>
    </separator>
   </separator>
   <separator name="electronic dipolcorrection" >
    <i type="logical" name="LDIPOL"> F  </i>
    <i type="logical" name="LMONO"> F  </i>
    <i type="int" name="IDIPOL">     0</i>
    <i name="EPSILON">      1.00000000</i>
    <v name="DIPOL">   -100.00000000   -100.00000000   -100.00000000</v>
    <i name="EFIELD">      0.00000000</i>
   </separator>
  </separator>
  <separator name="grids" >
   <i type="int" name="NGX">    48</i>
   <i type="int" name="NGY">    48</i>
   <i type="int" name="NGZ">    48</i>
   <i type="int" name="NGXF">    96</i>
   <i type="int" name="NGYF">    96</i>
   <i type="int" name="NGZF">    96</i>
   <i type="logical" name="ADDGRID"> F  </i>
  </separator>
  <separator name="ionic" >
   <i type="int" name="NSW">   100</i>
   <i type="int" name="IBRION">     2</i>
   <i type="int" name="MDALGO">     0</i>
   <i type="int" name="ISIF">     3</i>
   <i name="PSTRESS">      0.00000000</i>
   <i name="EDIFFG">     -0.00100000</i>
   <i type="int" name="NFREE">     1</i>
   <i name="POTIM">      0.50000000</i>
   <i name="SMASS">     -3.00000000</i>
   <i name="SCALEE">      1.00000000</i>
  </separator>
  <separator name="ionic md" >
   <i name="TEBEG">      0.00010000</i>
   <i name="TEEND">      0.00010000</i>
   <i type="int" name="NBLOCK">     1</i>
   <i type="int" name="KBLOCK">   100</i>
   <i type="int" name="NPACO">   256</i>
   <i name="APACO">     16.00000000</i>
  </separator>
  <separator name="symmetry" >
   <i type="int" name="ISYM">     2</i>
   <i name="SYMPREC">      0.00001000</i>
  </separator>
  <separator name="dos" >
   <i type="int" name="LORBIT">     0</i>
   <v name="RWIGS">     -1.00000000     -1.00000000     -1.00000000</v>
   <i type="int" name="NEDOS">   301</i>
   <i name="EMIN">     10.00000000</i>
   <i name="EMAX">    -10.00000000</i>
   <i name="EFERMI">      0.00000000</i>
  </separator>
  <separator name="writing" >
   <i type="int" name="NWRITE">     2</i>
   <i type="logical" name="LWAVE"> F  </i>
   <i type="logical" name="LDOWNSAMPLE"> F  </i>
   <i type="logical" name="LCHARG"> F  </i>
   <i type="logical" name="LPARD"> F  </i>
   <i type="logical" name="LVTOT"> F  </i>
   <i type="logical" name="LVHAR"> F  </i>
   <i type="logical" name="LELF"> F  </i>
   <i type="logical" name="LOPTICS"> F  </i>
   <v name="STM">      0.00000000      0.00000000      0.00000000      0.00000000      0.00000000      0.00000000      0.00000000</v>
  </separator>
  <separator name="performance" >
   <i type="int" name="NPAR">     1</i>
   <i type="int" name="NSIM">     4</i>
   <i type="int" name="NBLK">    -1</i>
   <i type="logical" name="LPLANE"> T  </i>
   <i type="logical" name="LSCALAPACK"> T  </i>
   <i type="logical" name="LSCAAWARE"> F  </i>
   <i type="logical" name="LSCALU"> F  </i>
   <i type="logical" name="LASYNC"> F  </i>
   <i type="logical" name="LORBITALREAL"> F  </i>
  </separator>
  <separator name="miscellaneous" >
   <i type="int" name="IDIOT">     3</i>
   <i type="int" name="ISPECIAL">     0</i>
   <i type="logical" name="LMUSIC"> F  </i>
   <v name="POMASS">    208.98000000    132.90000000     39.09800000</v>
   <v name="DARWINR">      0.00000000      0.00000000      0.00000000</v>
   <v name="DARWINV">      1.00000000      1.00000000      1.00000000</v>
   <i type="logical" name="LCORR"> T  </i>
  </separator>
  <i type="logical" name="GGA_COMPAT"> T  </i>
  <i type="logical" name="LBERRY"> F  </i>
  <i type="int" name="ICORELEVEL">     0</i>
  <i type="logical" name="LDAU"> F  </i>
  <i type="int" name="I_CONSTRAINED_M">     0</i>
  <separator name="electronic exchange-correlation" >
   <i type="string" name="GGA">PE</i>
   <i type="int" name="VOSKOWN">     0</i>
   <i type="logical" name="LHFCALC"> F  </i>
   <i type="string" name="PRECFOCK"></i>
   <i type="logical" name="LSYMGRAD"> F  </i>
   <i type="logical" name="LHFONE"> F  </i>
   <i type="logical" name="LRHFCALC"> F  </i>
   <i type="logical" name="LTHOMAS"> F  </i>
   <i type="logical" name="LMODELHF"> F  </i>
   <i name="ENCUT4O">     -1.00000000</i>
   <i type="int" name="EXXOEP">     0</i>
   <i type="int" name="FOURORBIT">     0</i>
   <i name="AEXX">      0.00000000</i>
   <i name="HFALPHA">      0.00000000</i>
   <i name="MCALPHA">      0.00000000</i>
   <i name="ALDAX">      1.00000000</i>
   <i name="AGGAX">      1.00000000</i>
   <i name="ALDAC">      1.00000000</i>
   <i name="AGGAC">      1.00000000</i>
   <i type="int" name="NKREDX">     1</i>
   <i type="int" name="NKREDY">     1</i>
   <i type="int" name="NKREDZ">     1</i>
   <i type="logical" name="SHIFTRED"> F  </i>
   <i type="logical" name="ODDONLY"> F  </i>
   <i type="logical" name="EVENONLY"> F  </i>
   <i type="int" name="LMAXFOCK">     0</i>
   <i type="int" name="NMAXFOCKAE">     0</i>
   <i type="logical" name="LFOCKAEDFT"> F  </i>
   <i name="HFSCREEN">      0.00000000</i>
   <i name="HFSCREENC">      0.00000000</i>
   <i type="int" name="NBANDSGWLOW">     0</i>
  </separator>
  <separator name="vdW DFT" >
   <i type="logical" name="LUSE_VDW"> F  </i>
   <i name="Zab_VDW">     -0.84910000</i>
   <i name="PARAM1">      0.12340000</i>
   <i name="PARAM2">      1.00000000</i>
   <i name="PARAM3">      0.00000000</i>
  </separator>
  <separator name="model GW" >
   <i type="int" name="MODEL_GW">     0</i>
   <i name="MODEL_EPS0">     26.30913081</i>
   <i name="MODEL_ALPHA">      1.00000000</i>
  </separator>
  <separator name="linear response parameters" >
   <i type="logical" name="LEPSILON"> F  </i>
   <i type="logical" name="LRPA"> F  </i>
   <i type="logical" name="LNABLA"> F  </i>
   <i type="logical" name="LVEL"> F  </i>
   <i type="int" name="KINTER">     0</i>
   <i name="CSHIFT">      0.10000000</i>
   <i name="OMEGAMAX">     -1.00000000</i>
   <i name="DEG_THRESHOLD">      0.00200000</i>
   <i name="RTIME">     -0.10000000</i>
   <i name="WPLASMAI">      0.00000000</i>
   <v name="DFIELD">      0.00000000      0.00000000      0.00000000</v>
   <v name="WPLASMA">      0.00000000      0.00000000      0.00000000      0.00000000      0.00000000      0.00000000      0.00000000      0.00000000      0.00000000</v>
  </separator>
  <separator name="orbital magnetization" >
   <i type="logical" name="NUCIND"> F  </i>
   <v name="MAGPOS">      0.00000000      0.00000000      0.00000000</v>
   <i type="logical" name="LNICSALL"> T  </i>
   <i type="logical" name="ORBITALMAG"> F  </i>
   <i type="logical" name="LMAGBLOCH"> F  </i>
   <i type="logical" name="LCHIMAG"> F  </i>
   <i type="logical" name="LGAUGE"> T  </i>
   <i type="int" name="MAGATOM">     0</i>
   <v name="MAGDIPOL">      0.00000000      0.00000000      0.00000000</v>
   <v name="AVECCONST">      0.00000000      0.00000000      0.00000000</v>
  </separator>
  <separator name="response functions" >
   <i type="logical" name="LADDER"> F  </i>
   <i type="logical" name="LRPAFORCE"> F  </i>
   <i type="logical" name="LFXC"> F  </i>
   <i type="logical" name="LHARTREE"> T  </i>
   <i type="int" name="IBSE">     0</i>
   <v type="int" name="KPOINT">    -1     0     0     0</v>
   <i type="logical" name="LTCTE"> F  </i>
   <i type="logical" name="LTETE"> F  </i>
   <i type="logical" name="LTRIPLET"> F  </i>
   <i type="logical" name="LFXCEPS"> F  </i>
   <i type="logical" name="LFXHEG"> F  </i>
   <i type="int" name="NATURALO">     2</i>
   <i type="logical" name="L2ORDER"> F  </i>
   <i type="logical" name="LMP2LT"> F  </i>
   <i type="logical" name="LUSEW"> F  </i>
   <i name="ENCUTGW">     -2.00000000</i>
   <i name="ENCUTGWSOFT">     -2.00000000</i>
   <i name="ENCUTLF">     -1.00000000</i>
   <i type="int" name="LMAXMP2">    -1</i>
   <i name="SCISSOR">      0.00000000</i>
   <i type="int" name="NOMEGA">     0</i>
   <i type="int" name="NOMEGAR">     0</i>
   <i type="int" name="NBANDSGW">    -1</i>
   <i type="int" name="NBANDSO">    -1</i>
   <i type="int" name="NBANDSV">    -1</i>
   <i type="int" name="NELM">     1</i>
   <i type="int" name="NELMHF">     1</i>
   <i type="int" name="DIM">     3</i>
   <i type="int" name="ANTIRES">     0</i>
   <i name="OMEGAMAX">    -30.00000000</i>
   <i name="OMEGAMIN">    -30.00000000</i>
   <i name="OMEGATL">   -200.00000000</i>
   <i type="int" name="OMEGAGRID">   140</i>
   <i name="CSHIFT">     -0.10000000</i>
   <i type="logical" name="SELFENERGY"> F  </i>
   <i type="logical" name="LSPECTRAL"> F  </i>
   <i type="logical" name="LSPECTRALGW"> F  </i>
   <i type="logical" name="LSINGLES"> F  </i>
   <i type="logical" name="LFERMIGW"> F  </i>
   <i type="logical" name="ODDONLYGW"> F  </i>
   <i type="logical" name="EVENONLYGW"> F  </i>
   <i type="int" name="NKREDLFX">     1</i>
   <i type="int" name="NKREDLFY">     1</i>
   <i type="int" name="NKREDLFZ">     1</i>
   <i type="int" name="MAXMEM">  2800</i>
   <i type="int" name="TELESCOPE">     0</i>
   <i type="int" name="TAUPAR">     1</i>
   <i type="int" name="OMEGAPAR">    -1</i>
   <i name="LAMBDA">      1.00000000</i>
  </separator>
  <separator name="External order field" >
   <i name="OFIELD_KAPPA">      0.00000000</i>
   <v name="OFIELD_K">      0.00000000      0.00000000      0.00000000</v>
   <i name="OFIELD_Q6_NEAR">      0.00000000</i>
   <i name="OFIELD_Q6_FAR">      0.00000000</i>
   <i name="OFIELD_A">      0.00000000</i>
  </separator>
 </parameters>
 <atominfo>
  <atoms>       4 </atoms>
  <types>       3 </types>
  <array name="atoms" >
   <dimension dim="1">ion</dimension>
   <field type="string">element</field>
   <field type="int">atomtype</field>
   <set>
    <rc><c>Bi</c><c>   1</c></rc>
    <rc><c>Cs</c><c>   2</c></rc>
    <rc><c>K </c><c>   3</c></rc>
    <rc><c>K </c><c>   3</c></rc>
   </set>
  </array>
  <array name="atomtypes" >
   <dimension dim="1">type</dimension>
   <field type="int">atomspertype</field>
   <field type="string">element</field>
   <field>mass</field>
   <field>valence</field>
   <field type="string">pseudopotential</field>
   <set>
    <rc><c>   1</c><c>Bi</c><c>    208.98000000</c><c>     15.00000000</c><c>  PAW_PBE Bi_d 06Sep2000                </c></rc>
    <rc><c>   1</c><c>Cs</c><c>    132.90000000</c><c>      9.00000000</c><c>  PAW_PBE Cs_sv 08Apr2002               </c></rc>
    <rc><c>   2</c><c>K </c><c>     39.09800000</c><c>      9.00000000</c><c>  PAW_PBE K_sv 06Sep2000                </c></rc>
   </set>
  </array>
 </atominfo>
 <structure name="initialpos" >
  <crystal>
   <varray name="basis" >
    <v>       0.00000000       4.44285100       4.44285100 </v>
    <v>       4.44285100       0.00000000       4.44285100 </v>
    <v>       4.44285100       4.44285100       0.00000000 </v>
   </varray>
   <i name="volume">    175.39420542 </i>
   <varray name="rec_basis" >
    <v>      -0.11254035       0.11254035       0.11254035 </v>
    <v>       0.11254035      -0.11254035       0.11254035 </v>
    <v>       0.11254035       0.11254035      -0.11254035 </v>
   </varray>
  </crystal>
  <varray name="positions" >
   <v>       0.25000051       0.25000051       0.25000051 </v>
   <v>       0.75000039       0.75000039       0.75000039 </v>
   <v>       0.00000000       0.00000000       0.00000000 </v>
   <v>       0.49999989       0.49999989       0.49999989 </v>
  </varray>
 </structure>
 <calculation>
  <scstep>
   <time name="dav">    0.49    0.49</time>
   <time name="total">    0.58    0.58</time>
   <energy>
    <i name="alphaZ">    141.22081525 </i>
    <i name="ewald">  -2681.49754213 </i>
    <i name="hartreedc">  -1151.78515267 </i>
    <i name="XCdc">    129.98614631 </i>
    <i name="pawpsdc">   3288.09641306 </i>
    <i name="pawaedc">  -3241.43768472 </i>
    <i name="eentropy">     -0.00131951 </i>
    <i name="bandstr">   -155.35147539 </i>
    <i name="atom">   4064.89301065 </i>
    <i name="e_fr_energy">    394.12321086 </i>
    <i name="e_wo_entrp">    394.12453037 </i>
    <i name="e_0_energy">    394.12387062 </i>
   </energy>
  </scstep>
  <scstep>
   <time name="dav">    0.51    0.52</time>
   <time name="total">    0.51    0.52</time>
   <energy>
    <i name="e_fr_energy">     25.93156035 </i>
    <i name="e_wo_entrp">     25.93185667 </i>
    <i name="e_0_energy">     25.93170851 </i>
   </energy>
  </scstep>
  <scstep>
   <time name="dav">    0.57    0.57</time>
   <time name="total">    0.57    0.57</time>
   <energy>
    <i name="e_fr_energy">     -7.74641823 </i>
    <i name="e_wo_entrp">     -7.74641823 </i>
    <i name="e_0_energy">     -7.74641823 </i>
   </energy>
  </scstep>
  <scstep>
   <time name="dav">    0.66    0.66</time>
   <time name="total">    0.66    0.66</time>
   <energy>
    <i name="e_fr_energy">     -9.13306691 </i>
    <i name="e_wo_entrp">     -9.13306691 </i>
    <i name="e_0_energy">     -9.13306691 </i>
   </energy>
  </scstep>
  <scstep>
   <time name="dav">    0.64    0.64</time>
   <time name="total">    0.70    0.70</time>
   <energy>
    <i name="e_fr_energy">     -9.17490224 </i>
    <i name="e_wo_entrp">     -9.17490224 </i>
    <i name="e_0_energy">     -9.17490224 </i>
   </energy>
  </scstep>
  <scstep>
   <time name="dav">    0.55    0.55</time>
   <time name="total">    0.70    0.71</time>
   <energy>
    <i name="e_fr_energy">     -8.43232972 </i>
    <i name="e_wo_entrp">     -8.43232972 </i>
    <i name="e_0_energy">     -8.43232972 </i>
   </energy>
  </scstep>
  <scstep>
   <time name="dav">    0.58    0.58</time>
   <time name="total">    0.72    0.73</time>
   <energy>
    <i name="e_fr_energy">     -8.30387217 </i>
    <i name="e_wo_entrp">     -8.30387216 </i>
    <i name="e_0_energy">     -8.30387216 </i>
   </energy>
  </scstep>
  <scstep>
   <time name="dav">    0.57    0.57</time>
   <time name="total">    0.71    0.72</time>
   <energy>
    <i name="e_fr_energy">     -8.31509531 </i>
    <i name="e_wo_entrp">     -8.31509531 </i>
    <i name="e_0_energy">     -8.31509531 </i>
   </energy>
  </scstep>
  <scstep>
   <time name="dav">    0.56    0.56</time>
   <time name="total">    0.71    0.71</time>
   <energy>
    <i name="e_fr_energy">     -8.31447348 </i>
    <i name="e_wo_entrp">     -8.31447348 </i>
    <i name="e_0_energy">     -8.31447348 </i>
   </energy>
  </scstep>
  <scstep>
   <time name="dav">    0.57    0.57</time>
   <time name="total">    0.72    0.72</time>
   <energy>
    <i name="e_fr_energy">     -8.31476529 </i>
    <i name="e_wo_entrp">     -8.31476528 </i>
    <i name="e_0_energy">     -8.31476529 </i>
   </energy>
  </scstep>
  <scstep>
   <time name="dav">    0.58    0.58</time>
   <time name="total">    0.73    0.73</time>
   <energy>
    <i name="e_fr_energy">     -8.31478873 </i>
    <i name="e_wo_entrp">     -8.31478873 </i>
    <i name="e_0_energy">     -8.31478873 </i>
   </energy>
  </scstep>
  <scstep>
   <time name="dav">    0.51    0.51</time>
   <time name="total">    0.60    0.60</time>
   <energy>
    <i name="alphaZ">    141.22081525 </i>
    <i name="ewald">  -2681.49754213 </i>
    <i name="hartreedc">  -1151.61301397 </i>
    <i name="XCdc">    129.81866482 </i>
    <i name="pawpsdc">   3389.06821524 </i>
    <i name="pawaedc">  -3345.43473661 </i>
    <i name="eentropy">     -0.00000000 </i>
    <i name="bandstr">   -554.77019921 </i>
    <i name="atom">   4064.89301065 </i>
    <i name="e_fr_energy">     -8.31478596 </i>
    <i name="e_wo_entrp">     -8.31478595 </i>
    <i name="e_0_energy">     -8.31478596 </i>
   </energy>
  </scstep>
  <structure>
   <crystal>
    <varray name="basis" >
     <v>       0.00000000       4.44285100       4.44285100 </v>
     <v>       4.44285100       0.00000000       4.44285100 </v>
     <v>       4.44285100       4.44285100       0.00000000 </v>
    </varray>
    <i name="volume">    175.39420542 </i>
    <varray name="rec_basis" >
     <v>      -0.11254035       0.11254035       0.11254035 </v>
     <v>       0.11254035      -0.11254035       0.11254035 </v>
     <v>       0.11254035       0.11254035      -0.11254035 </v>
    </varray>
   </crystal>
   <varray name="positions" >
    <v>       0.25000051       0.25000051       0.25000051 </v>
    <v>       0.75000039       0.75000039       0.75000039 </v>
    <v>       0.00000000       0.00000000       0.00000000 </v>
    <v>       0.49999989       0.49999989       0.49999989 </v>
   </varray>
  </structure>
  <varray name="forces" >
   <v>       0.00000000      -0.00000000      -0.00000000 </v>
   <v>       0.00000000      -0.00000000      -0.00000000 </v>
   <v>       0.00000000       0.00000000       0.00000000 </v>
   <v>      -0.00000000      -0.00000000      -0.00000000 </v>
  </varray>
  <varray name="stress" >
   <v>       1.40679855       0.00000000       0.00000000 </v>
   <v>       0.00000000       1.40679855      -0.00000000 </v>
   <v>      -0.00000000       0.00000000       1.40679855 </v>
  </varray>
  <energy>
   <i name="e_fr_energy">     -8.31478596 </i>
   <i name="e_wo_entrp">     -8.31478596 </i>
   <i name="e_0_energy">     -0.00000000 </i>
  </energy>
  <time name="totalsc">    8.64    8.66</time>
 </calculation>
 <calculation>
  <scstep>
   <time name="dav">    0.49    0.49</time>
   <time name="total">    0.64    0.64</time>
   <energy>
    <i name="alphaZ">    140.43681462 </i>
    <i name="ewald">  -2676.52613579 </i>
    <i name="hartreedc">  -1149.46734386 </i>
    <i name="XCdc">    129.55728994 </i>
    <i name="pawpsdc">   3388.81700798 </i>
    <i name="pawaedc">  -3345.18695038 </i>
    <i name="eentropy">     -0.00000001 </i>
    <i name="bandstr">   -560.85029924 </i>
    <i name="atom">   4064.89301065 </i>
    <i name="e_fr_energy">     -8.32660608 </i>
    <i name="e_wo_entrp">     -8.32660608 </i>
    <i name="e_0_energy">     -8.32660608 </i>
   </energy>
  </scstep>
  <scstep>
   <time name="dav">    0.55    0.55</time>
   <time name="total">    0.70    0.70</time>
   <energy>
    <i name="e_fr_energy">     -8.31762623 </i>
    <i name="e_wo_entrp">     -8.31762621 </i>
    <i name="e_0_energy">     -8.31762622 </i>
   </energy>
  </scstep>
  <scstep>
   <time name="dav">    0.56    0.56</time>
   <time name="total">    0.70    0.70</time>
   <energy>
    <i name="e_fr_energy">     -8.31544125 </i>
    <i name="e_wo_entrp">     -8.31544124 </i>
    <i name="e_0_energy">     -8.31544125 </i>
   </energy>
  </scstep>
  <scstep>
   <time name="dav">    0.64    0.64</time>
   <time name="total">    0.79    0.79</time>
   <energy>
    <i name="e_fr_energy">     -8.31546873 </i>
    <i name="e_wo_entrp">     -8.31546872 </i>
    <i name="e_0_energy">     -8.31546872 </i>
   </energy>
  </scstep>
  <scstep>
   <time name="dav">    0.52    0.52</time>
   <time name="total">    0.67    0.67</time>
   <energy>
    <i name="e_fr_energy">     -8.31547507 </i>
    <i name="e_wo_entrp">     -8.31547506 </i>
    <i name="e_0_energy">     -8.31547506 </i>
   </energy>
  </scstep>
  <scstep>
   <time name="dav">    0.42    0.42</time>
   <time name="total">    0.51    0.51</time>
   <energy>
    <i name="alphaZ">    140.43681462 </i>
    <i name="ewald">  -2676.52613579 </i>
    <i name="hartreedc">  -1154.58577708 </i>
    <i name="XCdc">    129.79218041 </i>
    <i name="pawpsdc">   3387.27911044 </i>
    <i name="pawaedc">  -3343.62145938 </i>
    <i name="eentropy">     -0.00000001 </i>
    <i name="bandstr">   -555.98321269 </i>
    <i name="atom">   4064.89301065 </i>
    <i name="e_fr_energy">     -8.31546883 </i>
    <i name="e_wo_entrp">     -8.31546882 </i>
    <i name="e_0_energy">     -8.31546883 </i>
   </energy>
  </scstep>
  <structure>
   <crystal>
    <varray name="basis" >
     <v>      -0.00000000       4.45110320       4.45110320 </v>
     <v>       4.45110320       0.00000000       4.45110320 </v>
     <v>       4.45110320       4.45110320      -0.00000000 </v>
    </varray>
    <i name="volume">    176.37335870 </i>
    <varray name="rec_basis" >
     <v>      -0.11233170       0.11233170       0.11233170 </v>
     <v>       0.11233170      -0.11233170       0.11233170 </v>
     <v>       0.11233170       0.11233170      -0.11233170 </v>
    </varray>
   </crystal>
   <varray name="positions" >
    <v>       0.25000051       0.25000051       0.25000051 </v>
    <v>       0.75000039       0.75000039       0.75000039 </v>
    <v>       0.00000000       0.00000000       0.00000000 </v>
    <v>       0.49999989       0.49999989       0.49999989 </v>
   </varray>
  </structure>
  <varray name="forces" >
   <v>       0.00000000       0.00000000      -0.00000000 </v>
   <v>      -0.00000000      -0.00000000       0.00000000 </v>
   <v>       0.00000000       0.00000000       0.00000000 </v>
   <v>      -0.00000000      -0.00000000      -0.00000000 </v>
  </varray>
  <varray name="stress" >
   <v>       0.97639767      -0.00000000      -0.00000000 </v>
   <v>       0.00000000       0.97639767       0.00000000 </v>
   <v>       0.00000000       0.00000000       0.97639767 </v>
  </varray>
  <energy>
   <i name="e_fr_energy">     -8.31546883 </i>
   <i name="e_wo_entrp">     -8.31546883 </i>
   <i name="e_0_energy">     -0.00000001 </i>
  </energy>
  <time name="totalsc">    4.72    4.74</time>
 </calculation>
 <calculation>
  <scstep>
   <time name="dav">    0.50    0.50</time>
   <time name="total">    0.65    0.65</time>
   <energy>
    <i name="alphaZ">    138.64744286 </i>
    <i name="ewald">  -2665.10988327 </i>
    <i name="hartreedc">  -1149.67166810 </i>
    <i name="XCdc">    129.19156152 </i>
    <i name="pawpsdc">   3387.05067157 </i>
    <i name="pawaedc">  -3343.40279248 </i>
    <i name="eentropy">     -0.00000011 </i>
    <i name="bandstr">   -569.97275476 </i>
    <i name="atom">   4064.89301065 </i>
    <i name="e_fr_energy">     -8.37441212 </i>
    <i name="e_wo_entrp">     -8.37441201 </i>
    <i name="e_0_energy">     -8.37441206 </i>
   </energy>
  </scstep>
  <scstep>
   <time name="dav">    0.55    0.55</time>
   <time name="total">    0.70    0.70</time>
   <energy>
    <i name="e_fr_energy">     -8.32707146 </i>
    <i name="e_wo_entrp">     -8.32707126 </i>
    <i name="e_0_energy">     -8.32707136 </i>
   </energy>
  </scstep>
  <scstep>
   <time name="dav">    0.55    0.55</time>
   <time name="total">    0.70    0.70</time>
   <energy>
    <i name="e_fr_energy">     -8.31538560 </i>
    <i name="e_wo_entrp">     -8.31538551 </i>
    <i name="e_0_energy">     -8.31538555 </i>
   </energy>
  </scstep>
  <scstep>
   <time name="dav">    1.24    1.27</time>
   <time name="total">    1.42    1.47</time>
   <energy>
    <i name="e_fr_energy">     -8.31554037 </i>
    <i name="e_wo_entrp">     -8.31554031 </i>
    <i name="e_0_energy">     -8.31554034 </i>
   </energy>
  </scstep>
  <scstep>
   <time name="dav">    1.94    1.95</time>
   <time name="total">    2.41    2.64</time>
   <energy>
    <i name="e_fr_energy">     -8.31561299 </i>
    <i name="e_wo_entrp">     -8.31561290 </i>
    <i name="e_0_energy">     -8.31561295 </i>
   </energy>
  </scstep>
  <scstep>
   <time name="dav">    0.47    0.51</time>
   <time name="total">    0.62    0.75</time>
   <energy>
    <i name="e_fr_energy">     -8.31558334 </i>
    <i name="e_wo_entrp">     -8.31558327 </i>
    <i name="e_0_energy">     -8.31558330 </i>
   </energy>
  </scstep>
  <scstep>
   <time name="dav">    0.43    0.43</time>
   <time name="total">    0.52    0.52</time>
   <energy>
    <i name="alphaZ">    138.64744286 </i>
    <i name="ewald">  -2665.10988327 </i>
    <i name="hartreedc">  -1161.47907825 </i>
    <i name="XCdc">    129.73361551 </i>
    <i name="pawpsdc">   3382.82407931 </i>
    <i name="pawaedc">  -3339.13613270 </i>
    <i name="eentropy">     -0.00000007 </i>
    <i name="bandstr">   -558.68863362 </i>
    <i name="atom">   4064.89301065 </i>
    <i name="e_fr_energy">     -8.31557959 </i>
    <i name="e_wo_entrp">     -8.31557952 </i>
    <i name="e_0_energy">     -8.31557955 </i>
   </energy>
  </scstep>
  <structure>
   <crystal>
    <varray name="basis" >
     <v>      -0.00000000       4.47016992       4.47016992 </v>
     <v>       4.47016992       0.00000000       4.47016992 </v>
     <v>       4.47016992       4.47016992      -0.00000000 </v>
    </varray>
    <i name="volume">    178.64961783 </i>
    <varray name="rec_basis" >
     <v>      -0.11185257       0.11185257       0.11185257 </v>
     <v>       0.11185257      -0.11185257       0.11185257 </v>
     <v>       0.11185257       0.11185257      -0.11185257 </v>
    </varray>
   </crystal>
   <varray name="positions" >
    <v>       0.25000051       0.25000051       0.25000051 </v>
    <v>       0.75000039       0.75000039       0.75000039 </v>
    <v>       0.00000000       0.00000000       0.00000000 </v>
    <v>       0.49999989       0.49999989       0.49999989 </v>
   </varray>
  </structure>
  <varray name="forces" >
   <v>       0.00000000       0.00000000       0.00000000 </v>
   <v>       0.00000000      -0.00000000      -0.00000000 </v>
   <v>       0.00000000       0.00000000       0.00000000 </v>
   <v>      -0.00000000      -0.00000000      -0.00000000 </v>
  </varray>
  <varray name="stress" >
   <v>      -0.48819959       0.00000000      -0.00000000 </v>
   <v>       0.00000000      -0.48819959      -0.00000000 </v>
   <v>       0.00000000       0.00000000      -0.48819959 </v>
  </varray>
  <energy>
   <i name="e_fr_energy">     -8.31557959 </i>
   <i name="e_wo_entrp">     -8.31557955 </i>
   <i name="e_0_energy">     -0.00000007 </i>
  </energy>
  <time name="totalsc">    7.73    8.15</time>
 </calculation>
 <calculation>
  <scstep>
   <time name="dav">    0.50    0.50</time>
   <time name="total">    0.65    0.65</time>
   <energy>
    <i name="alphaZ">    139.24560083 </i>
    <i name="ewald">  -2668.93702360 </i>
    <i name="hartreedc">  -1163.15162019 </i>
    <i name="XCdc">    129.93616187 </i>
    <i name="pawpsdc">   3382.77388892 </i>
    <i name="pawaedc">  -3339.09110071 </i>
    <i name="eentropy">     -0.00000003 </i>
    <i name="bandstr">   -553.99139763 </i>
    <i name="atom">   4064.89301065 </i>
    <i name="e_fr_energy">     -8.32247991 </i>
    <i name="e_wo_entrp">     -8.32247989 </i>
    <i name="e_0_energy">     -8.32247990 </i>
   </energy>
  </scstep>
  <scstep>
   <time name="dav">    0.57    0.57</time>
   <time name="total">    0.72    0.72</time>
   <energy>
    <i name="e_fr_energy">     -8.31701374 </i>
    <i name="e_wo_entrp">     -8.31701372 </i>
    <i name="e_0_energy">     -8.31701373 </i>
   </energy>
  </scstep>
  <scstep>
   <time name="dav">    0.53    0.53</time>
   <time name="total">    0.68    0.68</time>
   <energy>
    <i name="e_fr_energy">     -8.31569513 </i>
    <i name="e_wo_entrp">     -8.31569510 </i>
    <i name="e_0_energy">     -8.31569511 </i>
   </energy>
  </scstep>
  <scstep>
   <time name="dav">    0.61    0.62</time>
   <time name="total">    0.76    0.76</time>
   <energy>
    <i name="e_fr_energy">     -8.31573828 </i>
    <i name="e_wo_entrp">     -8.31573824 </i>
    <i name="e_0_energy">     -8.31573826 </i>
   </energy>
  </scstep>
  <scstep>
   <time name="dav">    0.48    0.48</time>
   <time name="total">    0.63    0.63</time>
   <energy>
    <i name="e_fr_energy">     -8.31575967 </i>
    <i name="e_wo_entrp">     -8.31575964 </i>
    <i name="e_0_energy">     -8.31575965 </i>
   </energy>
  </scstep>
  <scstep>
   <time name="dav">    0.38    0.38</time>
   <time name="total">    0.46    0.46</time>
   <energy>
    <i name="alphaZ">    139.24560083 </i>
    <i name="ewald">  -2668.93702360 </i>
    <i name="hartreedc">  -1159.17317432 </i>
    <i name="XCdc">    129.75375826 </i>
    <i name="pawpsdc">   3383.91948373 </i>
    <i name="pawaedc">  -3340.26119774 </i>
    <i name="eentropy">     -0.00000003 </i>
    <i name="bandstr">   -557.75621980 </i>
    <i name="atom">   4064.89301065 </i>
    <i name="e_fr_energy">     -8.31576204 </i>
    <i name="e_wo_entrp">     -8.31576201 </i>
    <i name="e_0_energy">     -8.31576202 </i>
   </energy>
  </scstep>
  <structure>
   <crystal>
    <varray name="basis" >
     <v>      -0.00000000       4.46375989       4.46375989 </v>
     <v>       4.46375989       0.00000000       4.46375989 </v>
     <v>       4.46375989       4.46375989      -0.00000000 </v>
    </varray>
    <i name="volume">    177.88219185 </i>
    <varray name="rec_basis" >
     <v>      -0.11201319       0.11201319       0.11201319 </v>
     <v>       0.11201319      -0.11201319       0.11201319 </v>
     <v>       0.11201319       0.11201319      -0.11201319 </v>
    </varray>
   </crystal>
   <varray name="positions" >
    <v>       0.25000051       0.25000051       0.25000051 </v>
    <v>       0.75000039       0.75000039       0.75000039 </v>
    <v>       0.00000000       0.00000000       0.00000000 </v>
    <v>       0.49999989       0.49999989       0.49999989 </v>
   </varray>
  </structure>
  <varray name="forces" >
   <v>       0.00000000      -0.00000000      -0.00000000 </v>
   <v>      -0.00000000      -0.00000000       0.00000000 </v>
   <v>       0.00000000       0.00000000       0.00000000 </v>
   <v>       0.00000000       0.00000000      -0.00000000 </v>
  </varray>
  <varray name="stress" >
   <v>      -0.30586417       0.00000000       0.00000000 </v>
   <v>       0.00000000      -0.30586417       0.00000000 </v>
   <v>       0.00000000      -0.00000000      -0.30586417 </v>
  </varray>
  <energy>
   <i name="e_fr_energy">     -8.31576204 </i>
   <i name="e_wo_entrp">     -8.31576202 </i>
   <i name="e_0_energy">     -0.00000003 </i>
  </energy>
  <time name="totalsc">    4.62    4.63</time>
 </calculation>
 <calculation>
  <scstep>
   <time name="dav">    0.50    0.50</time>
   <time name="total">    0.65    0.65</time>
   <energy>
    <i name="alphaZ">    140.00430082 </i>
    <i name="ewald">  -2673.77561068 </i>
    <i name="hartreedc">  -1161.26366567 </i>
    <i name="XCdc">    130.00888907 </i>
    <i name="pawpsdc">   3384.05164072 </i>
    <i name="pawaedc">  -3340.38883668 </i>
    <i name="eentropy">     -0.00000001 </i>
    <i name="bandstr">   -551.85605688 </i>
    <i name="atom">   4064.89301065 </i>
    <i name="e_fr_energy">     -8.32632866 </i>
    <i name="e_wo_entrp">     -8.32632865 </i>
    <i name="e_0_energy">     -8.32632865 </i>
   </energy>
  </scstep>
  <scstep>
   <time name="dav">    0.54    0.54</time>
   <time name="total">    0.69    0.69</time>
   <energy>
    <i name="e_fr_energy">     -8.31765684 </i>
    <i name="e_wo_entrp">     -8.31765683 </i>
    <i name="e_0_energy">     -8.31765684 </i>
   </energy>
  </scstep>
  <scstep>
   <time name="dav">    0.53    0.53</time>
   <time name="total">    0.68    0.68</time>
   <energy>
    <i name="e_fr_energy">     -8.31557228 </i>
    <i name="e_wo_entrp">     -8.31557227 </i>
    <i name="e_0_energy">     -8.31557228 </i>
   </energy>
  </scstep>
  <scstep>
   <time name="dav">    0.65    0.65</time>
   <time name="total">    0.80    0.80</time>
   <energy>
    <i name="e_fr_energy">     -8.31563904 </i>
    <i name="e_wo_entrp">     -8.31563902 </i>
    <i name="e_0_energy">     -8.31563903 </i>
   </energy>
  </scstep>
  <scstep>
   <time name="dav">    0.50    0.50</time>
   <time name="total">    0.65    0.66</time>
   <energy>
    <i name="e_fr_energy">     -8.31567067 </i>
    <i name="e_wo_entrp">     -8.31567066 </i>
    <i name="e_0_energy">     -8.31567066 </i>
   </energy>
  </scstep>
  <scstep>
   <time name="dav">    0.41    0.42</time>
   <time name="total">    0.50    0.50</time>
   <energy>
    <i name="alphaZ">    140.00430082 </i>
    <i name="ewald">  -2673.77561068 </i>
    <i name="hartreedc">  -1156.25820269 </i>
    <i name="XCdc">    129.77899896 </i>
    <i name="pawpsdc">   3385.66648742 </i>
    <i name="pawaedc">  -3342.02744573 </i>
    <i name="eentropy">     -0.00000001 </i>
    <i name="bandstr">   -556.59721214 </i>
    <i name="atom">   4064.89301065 </i>
    <i name="e_fr_energy">     -8.31567341 </i>
    <i name="e_wo_entrp">     -8.31567340 </i>
    <i name="e_0_energy">     -8.31567340 </i>
   </energy>
  </scstep>
  <structure>
   <crystal>
    <varray name="basis" >
     <v>      -0.00000000       4.45568207       4.45568207 </v>
     <v>       4.45568207       0.00000000       4.45568207 </v>
     <v>       4.45568207       4.45568207      -0.00000000 </v>
    </varray>
    <i name="volume">    176.91822705 </i>
    <varray name="rec_basis" >
     <v>      -0.11221627       0.11221627       0.11221627 </v>
     <v>       0.11221627      -0.11221627       0.11221627 </v>
     <v>       0.11221627       0.11221627      -0.11221627 </v>
    </varray>
   </crystal>
   <varray name="positions" >
    <v>       0.25000051       0.25000051       0.25000051 </v>
    <v>       0.75000039       0.75000039       0.75000039 </v>
    <v>       0.00000000       0.00000000       0.00000000 </v>
    <v>       0.49999989       0.49999989       0.49999989 </v>
   </varray>
  </structure>
  <varray name="forces" >
   <v>      -0.00000000      -0.00000000       0.00000000 </v>
   <v>      -0.00000000      -0.00000000       0.00000000 </v>
   <v>      -0.00000000      -0.00000000       0.00000000 </v>
   <v>       0.00000000       0.00000000      -0.00000000 </v>
  </varray>
  <varray name="stress" >
   <v>       0.25700907       0.00000000       0.00000000 </v>
   <v>       0.00000000       0.25700907      -0.00000000 </v>
   <v>      -0.00000000       0.00000000       0.25700907 </v>
  </varray>
  <energy>
   <i name="e_fr_energy">     -8.31567341 </i>
   <i name="e_wo_entrp">     -8.31567340 </i>
   <i name="e_0_energy">     -0.00000001 </i>
  </energy>
  <time name="totalsc">    4.68    4.70</time>
 </calculation>
 <calculation>
  <scstep>
   <time name="dav">    0.50    0.50</time>
   <time name="total">    0.65    0.65</time>
   <energy>
    <i name="alphaZ">    139.65821781 </i>
    <i name="ewald">  -2671.57065026 </i>
    <i name="hartreedc">  -1155.29223711 </i>
    <i name="XCdc">    129.66204408 </i>
    <i name="pawpsdc">   3385.85503966 </i>
    <i name="pawaedc">  -3342.20964631 </i>
    <i name="eentropy">     -0.00000002 </i>
    <i name="bandstr">   -559.31374894 </i>
    <i name="atom">   4064.89301065 </i>
    <i name="e_fr_energy">     -8.31797044 </i>
    <i name="e_wo_entrp">     -8.31797042 </i>
    <i name="e_0_energy">     -8.31797043 </i>
   </energy>
  </scstep>
  <scstep>
   <time name="dav">    0.58    0.58</time>
   <time name="total">    0.73    0.73</time>
   <energy>
    <i name="e_fr_energy">     -8.31620526 </i>
    <i name="e_wo_entrp">     -8.31620523 </i>
    <i name="e_0_energy">     -8.31620524 </i>
   </energy>
  </scstep>
  <scstep>
   <time name="dav">    0.54    0.54</time>
   <time name="total">    0.69    0.69</time>
   <energy>
    <i name="e_fr_energy">     -8.31576600 </i>
    <i name="e_wo_entrp">     -8.31576598 </i>
    <i name="e_0_energy">     -8.31576599 </i>
   </energy>
  </scstep>
  <scstep>
   <time name="dav">    0.53    0.54</time>
   <time name="total">    0.69    0.69</time>
   <energy>
    <i name="e_fr_energy">     -8.31576699 </i>
    <i name="e_wo_entrp">     -8.31576697 </i>
    <i name="e_0_energy">     -8.31576698 </i>
   </energy>
  </scstep>
  <scstep>
   <time name="dav">    0.46    0.46</time>
   <time name="total">    0.55    0.55</time>
   <energy>
    <i name="alphaZ">    139.65821781 </i>
    <i name="ewald">  -2671.57065026 </i>
    <i name="hartreedc">  -1157.60085270 </i>
    <i name="XCdc">    129.76771282 </i>
    <i name="pawpsdc">   3385.37403152 </i>
    <i name="pawaedc">  -3341.70930070 </i>
    <i name="eentropy">     -0.00000002 </i>
    <i name="bandstr">   -557.12793412 </i>
    <i name="atom">   4064.89301065 </i>
    <i name="e_fr_energy">     -8.31576500 </i>
    <i name="e_wo_entrp">     -8.31576498 </i>
    <i name="e_0_energy">     -8.31576499 </i>
   </energy>
  </scstep>
  <structure>
   <crystal>
    <varray name="basis" >
     <v>      -0.00000000       4.45935953       4.45935953 </v>
     <v>       4.45935953       0.00000000       4.45935953 </v>
     <v>       4.45935953       4.45935953      -0.00000000 </v>
    </varray>
    <i name="volume">    177.35664301 </i>
    <varray name="rec_basis" >
     <v>      -0.11212372       0.11212372       0.11212372 </v>
     <v>       0.11212372      -0.11212372       0.11212372 </v>
     <v>       0.11212372       0.11212372      -0.11212372 </v>
    </varray>
   </crystal>
   <varray name="positions" >
    <v>       0.25000051       0.25000051       0.25000051 </v>
    <v>       0.75000039       0.75000039       0.75000039 </v>
    <v>       0.00000000       0.00000000       0.00000000 </v>
    <v>       0.49999989       0.49999989       0.49999989 </v>
   </varray>
  </structure>
  <varray name="forces" >
   <v>      -0.00000000      -0.00000000      -0.00000000 </v>
   <v>       0.00000000       0.00000000       0.00000000 </v>
   <v>       0.00000000       0.00000000       0.00000000 </v>
   <v>      -0.00000000      -0.00000000      -0.00000000 </v>
  </varray>
  <varray name="stress" >
   <v>      -0.02056781      -0.00000000      -0.00000000 </v>
   <v>      -0.00000000      -0.02056781       0.00000000 </v>
   <v>      -0.00000000      -0.00000000      -0.02056781 </v>
  </varray>
  <energy>
   <i name="e_fr_energy">     -8.31576500 </i>
   <i name="e_wo_entrp">     -8.31576499 </i>
   <i name="e_0_energy">     -0.00000002 </i>
  </energy>
  <time name="totalsc">    3.94    3.95</time>
  <eigenvalues>
   <array>
    <dimension dim="1">band</dimension>
    <dimension dim="2">kpoint</dimension>
    <dimension dim="3">spin</dimension>
    <field>eigene</field>
    <field>occ</field>
    <set>
     <set comment="spin 1">
      <set comment="kpoint 1">
       <r>  -29.2395    1.0000 </r>
       <r>  -29.2309    1.0000 </r>
       <r>  -21.1326    1.0000 </r>
       <r>  -19.0791    1.0000 </r>
       <r>  -19.0791    1.0000 </r>
       <r>  -19.0791    1.0000 </r>
       <r>  -19.0749    1.0000 </r>
       <r>  -19.0749    1.0000 </r>
       <r>  -12.7702    1.0000 </r>
       <r>  -12.7702    1.0000 </r>
       <r>  -12.7702    1.0000 </r>
       <r>  -12.7237    1.0000 </r>
       <r>  -12.7237    1.0000 </r>
       <r>  -12.7237    1.0000 </r>
       <r>   -7.9821    1.0000 </r>
       <r>   -7.9821    1.0000 </r>
       <r>   -7.9821    1.0000 </r>
       <r>   -7.0820    1.0000 </r>
       <r>    1.8138    1.0000 </r>
       <r>    1.8138    1.0000 </r>
       <r>    1.8138    1.0000 </r>
       <r>    2.1171    0.0000 </r>
       <r>    3.9693    0.0000 </r>
       <r>    3.9693    0.0000 </r>
       <r>    4.3648    0.0000 </r>
      </set>
      <set comment="kpoint 2">
       <r>  -29.2392    1.0000 </r>
       <r>  -29.2312    1.0000 </r>
       <r>  -21.1327    1.0000 </r>
       <r>  -19.0791    1.0000 </r>
       <r>  -19.0791    1.0000 </r>
       <r>  -19.0791    1.0000 </r>
       <r>  -19.0749    1.0000 </r>
       <r>  -19.0749    1.0000 </r>
       <r>  -12.7702    1.0000 </r>
       <r>  -12.7688    1.0000 </r>
       <r>  -12.7688    1.0000 </r>
       <r>  -12.7257    1.0000 </r>
       <r>  -12.7257    1.0000 </r>
       <r>  -12.7248    1.0000 </r>
       <r>   -7.9994    1.0000 </r>
       <r>   -7.9811    1.0000 </r>
       <r>   -7.9811    1.0000 </r>
       <r>   -7.0536    1.0000 </r>
       <r>    1.3317    1.0000 </r>
       <r>    1.7449    1.0000 </r>
       <r>    1.7449    1.0000 </r>
       <r>    2.7410    0.0000 </r>
       <r>    4.1597    0.0000 </r>
       <r>    4.1597    0.0000 </r>
       <r>    4.3028    0.0000 </r>
      </set>
      <set comment="kpoint 3">
       <r>  -29.2382    1.0000 </r>
       <r>  -29.2321    1.0000 </r>
       <r>  -21.1330    1.0000 </r>
       <r>  -19.0791    1.0000 </r>
       <r>  -19.0791    1.0000 </r>
       <r>  -19.0789    1.0000 </r>
       <r>  -19.0749    1.0000 </r>
       <r>  -19.0749    1.0000 </r>
       <r>  -12.7684    1.0000 </r>
       <r>  -12.7645    1.0000 </r>
       <r>  -12.7645    1.0000 </r>
       <r>  -12.7314    1.0000 </r>
       <r>  -12.7314    1.0000 </r>
       <r>  -12.7291    1.0000 </r>
       <r>   -8.0335    1.0000 </r>
       <r>   -7.9787    1.0000 </r>
       <r>   -7.9787    1.0000 </r>
       <r>   -6.9939    1.0000 </r>
       <r>    0.9069    1.0000 </r>
       <r>    1.6072    1.0000 </r>
       <r>    1.6072    1.0000 </r>
       <r>    3.4329    0.0000 </r>
       <r>    4.4086    0.0000 </r>
       <r>    4.5588    0.0000 </r>
       <r>    4.5588    0.0000 </r>
      </set>
      <set comment="kpoint 4">
       <r>  -29.2368    1.0000 </r>
       <r>  -29.2335    1.0000 </r>
       <r>  -21.1332    1.0000 </r>
       <r>  -19.0790    1.0000 </r>
       <r>  -19.0790    1.0000 </r>
       <r>  -19.0788    1.0000 </r>
       <r>  -19.0749    1.0000 </r>
       <r>  -19.0749    1.0000 </r>
       <r>  -12.7628    1.0000 </r>
       <r>  -12.7577    1.0000 </r>
       <r>  -12.7577    1.0000 </r>
       <r>  -12.7395    1.0000 </r>
       <r>  -12.7395    1.0000 </r>
       <r>  -12.7373    1.0000 </r>
       <r>   -8.0593    1.0000 </r>
       <r>   -7.9763    1.0000 </r>
       <r>   -7.9763    1.0000 </r>
       <r>   -6.9443    1.0000 </r>
       <r>    0.6523    1.0000 </r>
       <r>    1.4962    1.0000 </r>
       <r>    1.4962    1.0000 </r>
       <r>    3.8259    0.0000 </r>
       <r>    4.7678    0.0000 </r>
       <r>    4.7678    0.0000 </r>
       <r>    4.9584    0.0000 </r>
      </set>
      <set comment="kpoint 5">
       <r>  -29.2351    1.0000 </r>
       <r>  -29.2351    1.0000 </r>
       <r>  -21.1333    1.0000 </r>
       <r>  -19.0790    1.0000 </r>
       <r>  -19.0790    1.0000 </r>
       <r>  -19.0787    1.0000 </r>
       <r>  -19.0749    1.0000 </r>
       <r>  -19.0749    1.0000 </r>
       <r>  -12.7574    1.0000 </r>
       <r>  -12.7508    1.0000 </r>
       <r>  -12.7508    1.0000 </r>
       <r>  -12.7470    1.0000 </r>
       <r>  -12.7470    1.0000 </r>
       <r>  -12.7439    1.0000 </r>
       <r>   -8.0681    1.0000 </r>
       <r>   -7.9753    1.0000 </r>
       <r>   -7.9753    1.0000 </r>
       <r>   -6.9261    1.0000 </r>
       <r>    0.5662    1.0000 </r>
       <r>    1.4556    1.0000 </r>
       <r>    1.4556    1.0000 </r>
       <r>    4.0533    0.0000 </r>
       <r>    4.8893    0.0000 </r>
       <r>    4.8893    0.0000 </r>
       <r>    4.9686    0.0000 </r>
      </set>
      <set comment="kpoint 6">
       <r>  -29.2391    1.0000 </r>
       <r>  -29.2313    1.0000 </r>
       <r>  -21.1327    1.0000 </r>
       <r>  -19.0791    1.0000 </r>
       <r>  -19.0791    1.0000 </r>
       <r>  -19.0791    1.0000 </r>
       <r>  -19.0749    1.0000 </r>
       <r>  -19.0749    1.0000 </r>
       <r>  -12.7731    1.0000 </r>
       <r>  -12.7731    1.0000 </r>
       <r>  -12.7610    1.0000 </r>
       <r>  -12.7333    1.0000 </r>
       <r>  -12.7221    1.0000 </r>
       <r>  -12.7221    1.0000 </r>
       <r>   -8.0029    1.0000 </r>
       <r>   -7.9809    1.0000 </r>
       <r>   -7.9809    1.0000 </r>
       <r>   -7.0472    1.0000 </r>
       <r>    1.2141    1.0000 </r>
       <r>    1.7922    1.0000 </r>
       <r>    1.7923    1.0000 </r>
       <r>    2.7603    0.0000 </r>
       <r>    4.0727    0.0000 </r>
       <r>    4.1162    0.0000 </r>
       <r>    4.3868    0.0000 </r>
      </set>
      <set comment="kpoint 7">
       <r>  -29.2384    1.0000 </r>
       <r>  -29.2319    1.0000 </r>
       <r>  -21.1330    1.0000 </r>
       <r>  -19.0790    1.0000 </r>
       <r>  -19.0790    1.0000 </r>
       <r>  -19.0790    1.0000 </r>
       <r>  -19.0749    1.0000 </r>
       <r>  -19.0749    1.0000 </r>
       <r>  -12.7745    1.0000 </r>
       <r>  -12.7739    1.0000 </r>
       <r>  -12.7519    1.0000 </r>
       <r>  -12.7434    1.0000 </r>
       <r>  -12.7226    1.0000 </r>
       <r>  -12.7224    1.0000 </r>
       <r>   -8.0260    1.0000 </r>
       <r>   -7.9798    1.0000 </r>
       <r>   -7.9792    1.0000 </r>
       <r>   -7.0056    1.0000 </r>
       <r>    0.9341    1.0000 </r>
       <r>    1.6557    1.0000 </r>
       <r>    1.7158    1.0000 </r>
       <r>    3.2857    0.0000 </r>
       <r>    3.9952    0.0000 </r>
       <r>    4.3465    0.0000 </r>
       <r>    4.6647    0.0000 </r>
      </set>
      <set comment="kpoint 8">
       <r>  -29.2372    1.0000 </r>
       <r>  -29.2331    1.0000 </r>
       <r>  -21.1332    1.0000 </r>
       <r>  -19.0790    1.0000 </r>
       <r>  -19.0790    1.0000 </r>
       <r>  -19.0788    1.0000 </r>
       <r>  -19.0749    1.0000 </r>
       <r>  -19.0749    1.0000 </r>
       <r>  -12.7724    1.0000 </r>
       <r>  -12.7708    1.0000 </r>
       <r>  -12.7543    1.0000 </r>
       <r>  -12.7418    1.0000 </r>
       <r>  -12.7276    1.0000 </r>
       <r>  -12.7271    1.0000 </r>
       <r>   -8.0474    1.0000 </r>
       <r>   -7.9794    1.0000 </r>
       <r>   -7.9768    1.0000 </r>
       <r>   -6.9616    1.0000 </r>
       <r>    0.7449    1.0000 </r>
       <r>    1.4780    1.0000 </r>
       <r>    1.5894    1.0000 </r>
       <r>    3.7160    0.0000 </r>
       <r>    4.3375    0.0000 </r>
       <r>    4.8064    0.0000 </r>
       <r>    4.9220    0.0000 </r>
      </set>
      <set comment="kpoint 9">
       <r>  -29.2356    1.0000 </r>
       <r>  -29.2345    1.0000 </r>
       <r>  -21.1334    1.0000 </r>
       <r>  -19.0790    1.0000 </r>
       <r>  -19.0790    1.0000 </r>
       <r>  -19.0787    1.0000 </r>
       <r>  -19.0749    1.0000 </r>
       <r>  -19.0749    1.0000 </r>
       <r>  -12.7707    1.0000 </r>
       <r>  -12.7639    1.0000 </r>
       <r>  -12.7592    1.0000 </r>
       <r>  -12.7369    1.0000 </r>
       <r>  -12.7345    1.0000 </r>
       <r>  -12.7322    1.0000 </r>
       <r>   -8.0571    1.0000 </r>
       <r>   -7.9798    1.0000 </r>
       <r>   -7.9752    1.0000 </r>
       <r>   -6.9378    1.0000 </r>
       <r>    0.6569    1.0000 </r>
       <r>    1.3997    1.0000 </r>
       <r>    1.4919    1.0000 </r>
       <r>    4.0258    0.0000 </r>
       <r>    4.7061    0.0000 </r>
       <r>    4.8980    0.0000 </r>
       <r>    4.9020    0.0000 </r>
      </set>
      <set comment="kpoint 10">
       <r>  -29.2361    1.0000 </r>
       <r>  -29.2341    1.0000 </r>
       <r>  -21.1333    1.0000 </r>
       <r>  -19.0790    1.0000 </r>
       <r>  -19.0789    1.0000 </r>
       <r>  -19.0787    1.0000 </r>
       <r>  -19.0749    1.0000 </r>
       <r>  -19.0749    1.0000 </r>
       <r>  -12.7756    1.0000 </r>
       <r>  -12.7542    1.0000 </r>
       <r>  -12.7530    1.0000 </r>
       <r>  -12.7460    1.0000 </r>
       <r>  -12.7435    1.0000 </r>
       <r>  -12.7243    1.0000 </r>
       <r>   -8.0553    1.0000 </r>
       <r>   -7.9806    1.0000 </r>
       <r>   -7.9753    1.0000 </r>
       <r>   -6.9413    1.0000 </r>
       <r>    0.6737    1.0000 </r>
       <r>    1.4453    1.0000 </r>
       <r>    1.4603    1.0000 </r>
       <r>    4.0058    0.0000 </r>
       <r>    4.6902    0.0000 </r>
       <r>    4.7353    0.0000 </r>
       <r>    4.9220    0.0000 </r>
      </set>
      <set comment="kpoint 11">
       <r>  -29.2376    1.0000 </r>
       <r>  -29.2327    1.0000 </r>
       <r>  -21.1331    1.0000 </r>
       <r>  -19.0790    1.0000 </r>
       <r>  -19.0790    1.0000 </r>
       <r>  -19.0788    1.0000 </r>
       <r>  -19.0749    1.0000 </r>
       <r>  -19.0749    1.0000 </r>
       <r>  -12.7778    1.0000 </r>
       <r>  -12.7587    1.0000 </r>
       <r>  -12.7532    1.0000 </r>
       <r>  -12.7432    1.0000 </r>
       <r>  -12.7393    1.0000 </r>
       <r>  -12.7200    1.0000 </r>
       <r>   -8.0419    1.0000 </r>
       <r>   -7.9810    1.0000 </r>
       <r>   -7.9771    1.0000 </r>
       <r>   -6.9715    1.0000 </r>
       <r>    0.8010    1.0000 </r>
       <r>    1.5058    1.0000 </r>
       <r>    1.5909    1.0000 </r>
       <r>    3.6730    0.0000 </r>
       <r>    4.3489    0.0000 </r>
       <r>    4.5384    0.0000 </r>
       <r>    4.7252    0.0000 </r>
      </set>
      <set comment="kpoint 12">
       <r>  -29.2386    1.0000 </r>
       <r>  -29.2317    1.0000 </r>
       <r>  -21.1329    1.0000 </r>
       <r>  -19.0791    1.0000 </r>
       <r>  -19.0791    1.0000 </r>
       <r>  -19.0790    1.0000 </r>
       <r>  -19.0749    1.0000 </r>
       <r>  -19.0749    1.0000 </r>
       <r>  -12.7754    1.0000 </r>
       <r>  -12.7653    1.0000 </r>
       <r>  -12.7619    1.0000 </r>
       <r>  -12.7332    1.0000 </r>
       <r>  -12.7308    1.0000 </r>
       <r>  -12.7205    1.0000 </r>
       <r>   -8.0187    1.0000 </r>
       <r>   -7.9810    1.0000 </r>
       <r>   -7.9795    1.0000 </r>
       <r>   -7.0185    1.0000 </r>
       <r>    1.0448    1.0000 </r>
       <r>    1.6174    1.0000 </r>
       <r>    1.7414    1.0000 </r>
       <r>    3.1669    0.0000 </r>
       <r>    4.1898    0.0000 </r>
       <r>    4.3362    0.0000 </r>
       <r>    4.4239    0.0000 </r>
      </set>
      <set comment="kpoint 13">
       <r>  -29.2380    1.0000 </r>
       <r>  -29.2323    1.0000 </r>
       <r>  -21.1331    1.0000 </r>
       <r>  -19.0790    1.0000 </r>
       <r>  -19.0790    1.0000 </r>
       <r>  -19.0789    1.0000 </r>
       <r>  -19.0749    1.0000 </r>
       <r>  -19.0749    1.0000 </r>
       <r>  -12.7798    1.0000 </r>
       <r>  -12.7798    1.0000 </r>
       <r>  -12.7565    1.0000 </r>
       <r>  -12.7387    1.0000 </r>
       <r>  -12.7182    1.0000 </r>
       <r>  -12.7182    1.0000 </r>
       <r>   -8.0305    1.0000 </r>
       <r>   -7.9783    1.0000 </r>
       <r>   -7.9783    1.0000 </r>
       <r>   -6.9979    1.0000 </r>
       <r>    0.8374    1.0000 </r>
       <r>    1.7493    1.0000 </r>
       <r>    1.7493    1.0000 </r>
       <r>    3.3540    0.0000 </r>
       <r>    3.6312    0.0000 </r>
       <r>    4.3810    0.0000 </r>
       <r>    4.8693    0.0000 </r>
      </set>
      <set comment="kpoint 14">
       <r>  -29.2372    1.0000 </r>
       <r>  -29.2330    1.0000 </r>
       <r>  -21.1333    1.0000 </r>
       <r>  -19.0789    1.0000 </r>
       <r>  -19.0789    1.0000 </r>
       <r>  -19.0788    1.0000 </r>
       <r>  -19.0748    1.0000 </r>
       <r>  -19.0748    1.0000 </r>
       <r>  -12.7818    1.0000 </r>
       <r>  -12.7810    1.0000 </r>
       <r>  -12.7678    1.0000 </r>
       <r>  -12.7272    1.0000 </r>
       <r>  -12.7188    1.0000 </r>
       <r>  -12.7183    1.0000 </r>
       <r>   -8.0358    1.0000 </r>
       <r>   -7.9796    1.0000 </r>
       <r>   -7.9765    1.0000 </r>
       <r>   -6.9809    1.0000 </r>
       <r>    0.8038    1.0000 </r>
       <r>    1.5968    1.0000 </r>
       <r>    1.6849    1.0000 </r>
       <r>    3.5317    0.0000 </r>
       <r>    3.8122    0.0000 </r>
       <r>    4.7148    0.0000 </r>
       <r>    5.0407    0.0000 </r>
      </set>
      <set comment="kpoint 15">
       <r>  -29.2361    1.0000 </r>
       <r>  -29.2341    1.0000 </r>
       <r>  -21.1335    1.0000 </r>
       <r>  -19.0789    1.0000 </r>
       <r>  -19.0789    1.0000 </r>
       <r>  -19.0787    1.0000 </r>
       <r>  -19.0749    1.0000 </r>
       <r>  -19.0748    1.0000 </r>
       <r>  -12.7848    1.0000 </r>
       <r>  -12.7769    1.0000 </r>
       <r>  -12.7698    1.0000 </r>
       <r>  -12.7256    1.0000 </r>
       <r>  -12.7229    1.0000 </r>
       <r>  -12.7183    1.0000 </r>
       <r>   -8.0341    1.0000 </r>
       <r>   -7.9871    1.0000 </r>
       <r>   -7.9750    1.0000 </r>
       <r>   -6.9655    1.0000 </r>
       <r>    0.8510    1.0000 </r>
       <r>    1.3553    1.0000 </r>
       <r>    1.5803    1.0000 </r>
       <r>    3.7296    0.0000 </r>
       <r>    4.4294    0.0000 </r>
       <r>    4.7184    0.0000 </r>
       <r>    4.9653    0.0000 </r>
      </set>
      <set comment="kpoint 16">
       <r>  -29.2353    1.0000 </r>
       <r>  -29.2348    1.0000 </r>
       <r>  -21.1335    1.0000 </r>
       <r>  -19.0789    1.0000 </r>
       <r>  -19.0789    1.0000 </r>
       <r>  -19.0787    1.0000 </r>
       <r>  -19.0749    1.0000 </r>
       <r>  -19.0748    1.0000 </r>
       <r>  -12.7880    1.0000 </r>
       <r>  -12.7682    1.0000 </r>
       <r>  -12.7617    1.0000 </r>
       <r>  -12.7365    1.0000 </r>
       <r>  -12.7310    1.0000 </r>
       <r>  -12.7135    1.0000 </r>
       <r>   -8.0327    1.0000 </r>
       <r>   -7.9934    1.0000 </r>
       <r>   -7.9745    1.0000 </r>
       <r>   -6.9560    1.0000 </r>
       <r>    0.8658    1.0000 </r>
       <r>    1.2726    1.0000 </r>
       <r>    1.4952    1.0000 </r>
       <r>    4.1325    0.0000 </r>
       <r>    4.3322    0.0000 </r>
       <r>    4.8175    0.0000 </r>
       <r>    5.0131    0.0000 </r>
      </set>
      <set comment="kpoint 17">
       <r>  -29.2365    1.0000 </r>
       <r>  -29.2337    1.0000 </r>
       <r>  -21.1334    1.0000 </r>
       <r>  -19.0790    1.0000 </r>
       <r>  -19.0789    1.0000 </r>
       <r>  -19.0788    1.0000 </r>
       <r>  -19.0749    1.0000 </r>
       <r>  -19.0748    1.0000 </r>
       <r>  -12.7857    1.0000 </r>
       <r>  -12.7562    1.0000 </r>
       <r>  -12.7505    1.0000 </r>
       <r>  -12.7485    1.0000 </r>
       <r>  -12.7415    1.0000 </r>
       <r>  -12.7139    1.0000 </r>
       <r>   -8.0396    1.0000 </r>
       <r>   -7.9885    1.0000 </r>
       <r>   -7.9754    1.0000 </r>
       <r>   -6.9566    1.0000 </r>
       <r>    0.7981    1.0000 </r>
       <r>    1.4231    1.0000 </r>
       <r>    1.4650    1.0000 </r>
       <r>    4.0550    0.0000 </r>
       <r>    4.4633    0.0000 </r>
       <r>    4.5772    0.0000 </r>
       <r>    4.6295    0.0000 </r>
      </set>
      <set comment="kpoint 18">
       <r>  -29.2369    1.0000 </r>
       <r>  -29.2332    1.0000 </r>
       <r>  -21.1335    1.0000 </r>
       <r>  -19.0789    1.0000 </r>
       <r>  -19.0789    1.0000 </r>
       <r>  -19.0788    1.0000 </r>
       <r>  -19.0748    1.0000 </r>
       <r>  -19.0748    1.0000 </r>
       <r>  -12.7864    1.0000 </r>
       <r>  -12.7864    1.0000 </r>
       <r>  -12.7796    1.0000 </r>
       <r>  -12.7161    1.0000 </r>
       <r>  -12.7143    1.0000 </r>
       <r>  -12.7143    1.0000 </r>
       <r>   -8.0314    1.0000 </r>
       <r>   -7.9757    1.0000 </r>
       <r>   -7.9757    1.0000 </r>
       <r>   -6.9930    1.0000 </r>
       <r>    0.8455    1.0000 </r>
       <r>    1.7169    1.0000 </r>
       <r>    1.7169    1.0000 </r>
       <r>    3.2405    0.0000 </r>
       <r>    3.7213    0.0000 </r>
       <r>    4.8781    0.0000 </r>
       <r>    4.8862    0.0000 </r>
      </set>
      <set comment="kpoint 19">
       <r>  -29.2364    1.0000 </r>
       <r>  -29.2338    1.0000 </r>
       <r>  -21.1337    1.0000 </r>
       <r>  -19.0789    1.0000 </r>
       <r>  -19.0788    1.0000 </r>
       <r>  -19.0787    1.0000 </r>
       <r>  -19.0748    1.0000 </r>
       <r>  -19.0748    1.0000 </r>
       <r>  -12.7913    1.0000 </r>
       <r>  -12.7859    1.0000 </r>
       <r>  -12.7807    1.0000 </r>
       <r>  -12.7163    1.0000 </r>
       <r>  -12.7153    1.0000 </r>
       <r>  -12.7097    1.0000 </r>
       <r>   -8.0239    1.0000 </r>
       <r>   -7.9817    1.0000 </r>
       <r>   -7.9747    1.0000 </r>
       <r>   -6.9925    1.0000 </r>
       <r>    0.9397    1.0000 </r>
       <r>    1.5376    1.0000 </r>
       <r>    1.6692    1.0000 </r>
       <r>    3.3195    0.0000 </r>
       <r>    3.8775    0.0000 </r>
       <r>    4.7889    0.0000 </r>
       <r>    5.1716    0.0000 </r>
      </set>
      <set comment="kpoint 20">
       <r>  -29.2356    1.0000 </r>
       <r>  -29.2345    1.0000 </r>
       <r>  -21.1336    1.0000 </r>
       <r>  -19.0789    1.0000 </r>
       <r>  -19.0788    1.0000 </r>
       <r>  -19.0788    1.0000 </r>
       <r>  -19.0748    1.0000 </r>
       <r>  -19.0748    1.0000 </r>
       <r>  -12.7936    1.0000 </r>
       <r>  -12.7795    1.0000 </r>
       <r>  -12.7725    1.0000 </r>
       <r>  -12.7247    1.0000 </r>
       <r>  -12.7212    1.0000 </r>
       <r>  -12.7086    1.0000 </r>
       <r>   -8.0107    1.0000 </r>
       <r>   -8.0023    1.0000 </r>
       <r>   -7.9742    1.0000 </r>
       <r>   -6.9778    1.0000 </r>
       <r>    1.0753    1.0000 </r>
       <r>    1.1976    1.0000 </r>
       <r>    1.5788    1.0000 </r>
       <r>    3.6653    0.0000 </r>
       <r>    4.2150    0.0000 </r>
       <r>    4.8703    0.0000 </r>
       <r>    5.0186    0.0000 </r>
      </set>
      <set comment="kpoint 21">
       <r>  -29.2365    1.0000 </r>
       <r>  -29.2336    1.0000 </r>
       <r>  -21.1337    1.0000 </r>
       <r>  -19.0788    1.0000 </r>
       <r>  -19.0788    1.0000 </r>
       <r>  -19.0787    1.0000 </r>
       <r>  -19.0748    1.0000 </r>
       <r>  -19.0747    1.0000 </r>
       <r>  -12.7892    1.0000 </r>
       <r>  -12.7892    1.0000 </r>
       <r>  -12.7891    1.0000 </r>
       <r>  -12.7127    1.0000 </r>
       <r>  -12.7127    1.0000 </r>
       <r>  -12.7068    1.0000 </r>
       <r>   -8.0244    1.0000 </r>
       <r>   -7.9746    1.0000 </r>
       <r>   -7.9746    1.0000 </r>
       <r>   -7.0035    1.0000 </r>
       <r>    0.9478    1.0000 </r>
       <r>    1.7060    1.0000 </r>
       <r>    1.7060    1.0000 </r>
       <r>    3.0966    0.0000 </r>
       <r>    3.6675    0.0000 </r>
       <r>    4.7923    0.0000 </r>
       <r>    5.4552    0.0000 </r>
      </set>
      <set comment="kpoint 22">
       <r>  -29.2376    1.0000 </r>
       <r>  -29.2327    1.0000 </r>
       <r>  -21.1332    1.0000 </r>
       <r>  -19.0790    1.0000 </r>
       <r>  -19.0790    1.0000 </r>
       <r>  -19.0789    1.0000 </r>
       <r>  -19.0749    1.0000 </r>
       <r>  -19.0749    1.0000 </r>
       <r>  -12.7815    1.0000 </r>
       <r>  -12.7699    1.0000 </r>
       <r>  -12.7555    1.0000 </r>
       <r>  -12.7404    1.0000 </r>
       <r>  -12.7286    1.0000 </r>
       <r>  -12.7169    1.0000 </r>
       <r>   -8.0367    1.0000 </r>
       <r>   -7.9812    1.0000 </r>
       <r>   -7.9775    1.0000 </r>
       <r>   -6.9792    1.0000 </r>
       <r>    0.8152    1.0000 </r>
       <r>    1.5678    1.0000 </r>
       <r>    1.6339    1.0000 </r>
       <r>    3.6639    0.0000 </r>
       <r>    3.8955    0.0000 </r>
       <r>    4.6251    0.0000 </r>
       <r>    4.7793    0.0000 </r>
      </set>
      <set comment="kpoint 23">
       <r>  -29.2364    1.0000 </r>
       <r>  -29.2338    1.0000 </r>
       <r>  -21.1334    1.0000 </r>
       <r>  -19.0790    1.0000 </r>
       <r>  -19.0789    1.0000 </r>
       <r>  -19.0788    1.0000 </r>
       <r>  -19.0749    1.0000 </r>
       <r>  -19.0748    1.0000 </r>
       <r>  -12.7847    1.0000 </r>
       <r>  -12.7664    1.0000 </r>
       <r>  -12.7613    1.0000 </r>
       <r>  -12.7383    1.0000 </r>
       <r>  -12.7297    1.0000 </r>
       <r>  -12.7164    1.0000 </r>
       <r>   -8.0403    1.0000 </r>
       <r>   -7.9850    1.0000 </r>
       <r>   -7.9764    1.0000 </r>
       <r>   -6.9587    1.0000 </r>
       <r>    0.7927    1.0000 </r>
       <r>    1.4172    1.0000 </r>
       <r>    1.5151    1.0000 </r>
       <r>    3.9266    0.0000 </r>
       <r>    4.3241    0.0000 </r>
       <r>    4.6547    0.0000 </r>
       <r>    5.0025    0.0000 </r>
      </set>
      <set comment="kpoint 24">
       <r>  -29.2351    1.0000 </r>
       <r>  -29.2351    1.0000 </r>
       <r>  -21.1335    1.0000 </r>
       <r>  -19.0789    1.0000 </r>
       <r>  -19.0789    1.0000 </r>
       <r>  -19.0787    1.0000 </r>
       <r>  -19.0749    1.0000 </r>
       <r>  -19.0748    1.0000 </r>
       <r>  -12.7850    1.0000 </r>
       <r>  -12.7709    1.0000 </r>
       <r>  -12.7521    1.0000 </r>
       <r>  -12.7482    1.0000 </r>
       <r>  -12.7219    1.0000 </r>
       <r>  -12.7205    1.0000 </r>
       <r>   -8.0398    1.0000 </r>
       <r>   -7.9873    1.0000 </r>
       <r>   -7.9759    1.0000 </r>
       <r>   -6.9518    1.0000 </r>
       <r>    0.8045    1.0000 </r>
       <r>    1.3243    1.0000 </r>
       <r>    1.4840    1.0000 </r>
       <r>    4.1766    0.0000 </r>
       <r>    4.3284    0.0000 </r>
       <r>    4.8874    0.0000 </r>
       <r>    4.9002    0.0000 </r>
      </set>
      <set comment="kpoint 25">
       <r>  -29.2365    1.0000 </r>
       <r>  -29.2337    1.0000 </r>
       <r>  -21.1335    1.0000 </r>
       <r>  -19.0789    1.0000 </r>
       <r>  -19.0789    1.0000 </r>
       <r>  -19.0788    1.0000 </r>
       <r>  -19.0748    1.0000 </r>
       <r>  -19.0748    1.0000 </r>
       <r>  -12.7904    1.0000 </r>
       <r>  -12.7759    1.0000 </r>
       <r>  -12.7757    1.0000 </r>
       <r>  -12.7254    1.0000 </r>
       <r>  -12.7173    1.0000 </r>
       <r>  -12.7132    1.0000 </r>
       <r>   -8.0293    1.0000 </r>
       <r>   -7.9815    1.0000 </r>
       <r>   -7.9783    1.0000 </r>
       <r>   -6.9793    1.0000 </r>
       <r>    0.8761    1.0000 </r>
       <r>    1.5400    1.0000 </r>
       <r>    1.5557    1.0000 </r>
       <r>    3.5993    0.0000 </r>
       <r>    3.9893    0.0000 </r>
       <r>    4.7690    0.0000 </r>
       <r>    5.0397    0.0000 </r>
      </set>
      <set comment="kpoint 26">
       <r>  -29.2356    1.0000 </r>
       <r>  -29.2345    1.0000 </r>
       <r>  -21.1336    1.0000 </r>
       <r>  -19.0789    1.0000 </r>
       <r>  -19.0788    1.0000 </r>
       <r>  -19.0787    1.0000 </r>
       <r>  -19.0749    1.0000 </r>
       <r>  -19.0748    1.0000 </r>
       <r>  -12.7952    1.0000 </r>
       <r>  -12.7777    1.0000 </r>
       <r>  -12.7650    1.0000 </r>
       <r>  -12.7365    1.0000 </r>
       <r>  -12.7141    1.0000 </r>
       <r>  -12.7113    1.0000 </r>
       <r>   -8.0169    1.0000 </r>
       <r>   -7.9937    1.0000 </r>
       <r>   -7.9788    1.0000 </r>
       <r>   -6.9742    1.0000 </r>
       <r>    1.0166    1.0000 </r>
       <r>    1.2806    1.0000 </r>
       <r>    1.4983    1.0000 </r>
       <r>    3.8671    0.0000 </r>
       <r>    4.2249    0.0000 </r>
       <r>    4.6850    0.0000 </r>
       <r>    4.9100    0.0000 </r>
      </set>
      <set comment="kpoint 27">
       <r>  -29.2355    1.0000 </r>
       <r>  -29.2347    1.0000 </r>
       <r>  -21.1336    1.0000 </r>
       <r>  -19.0789    1.0000 </r>
       <r>  -19.0788    1.0000 </r>
       <r>  -19.0788    1.0000 </r>
       <r>  -19.0749    1.0000 </r>
       <r>  -19.0748    1.0000 </r>
       <r>  -12.7933    1.0000 </r>
       <r>  -12.7739    1.0000 </r>
       <r>  -12.7515    1.0000 </r>
       <r>  -12.7496    1.0000 </r>
       <r>  -12.7200    1.0000 </r>
       <r>  -12.7109    1.0000 </r>
       <r>   -8.0214    1.0000 </r>
       <r>   -7.9960    1.0000 </r>
       <r>   -7.9775    1.0000 </r>
       <r>   -6.9654    1.0000 </r>
       <r>    0.9664    1.0000 </r>
       <r>    1.2628    1.0000 </r>
       <r>    1.4692    1.0000 </r>
       <r>    4.1673    0.0000 </r>
       <r>    4.3739    0.0000 </r>
       <r>    4.3796    0.0000 </r>
       <r>    5.0521    0.0000 </r>
      </set>
      <set comment="kpoint 28">
       <r>  -29.2361    1.0000 </r>
       <r>  -29.2341    1.0000 </r>
       <r>  -21.1337    1.0000 </r>
       <r>  -19.0788    1.0000 </r>
       <r>  -19.0788    1.0000 </r>
       <r>  -19.0787    1.0000 </r>
       <r>  -19.0748    1.0000 </r>
       <r>  -19.0748    1.0000 </r>
       <r>  -12.7967    1.0000 </r>
       <r>  -12.7817    1.0000 </r>
       <r>  -12.7781    1.0000 </r>
       <r>  -12.7240    1.0000 </r>
       <r>  -12.7119    1.0000 </r>
       <r>  -12.7076    1.0000 </r>
       <r>   -8.0169    1.0000 </r>
       <r>   -7.9817    1.0000 </r>
       <r>   -7.9814    1.0000 </r>
       <r>   -6.9909    1.0000 </r>
       <r>    1.0118    1.0000 </r>
       <r>    1.5033    1.0000 </r>
       <r>    1.5250    1.0000 </r>
       <r>    3.4905    0.0000 </r>
       <r>    3.8992    0.0000 </r>
       <r>    4.8174    0.0000 </r>
       <r>    5.0985    0.0000 </r>
      </set>
      <set comment="kpoint 29">
       <r>  -29.2351    1.0000 </r>
       <r>  -29.2351    1.0000 </r>
       <r>  -21.1337    1.0000 </r>
       <r>  -19.0788    1.0000 </r>
       <r>  -19.0788    1.0000 </r>
       <r>  -19.0788    1.0000 </r>
       <r>  -19.0749    1.0000 </r>
       <r>  -19.0748    1.0000 </r>
       <r>  -12.7998    1.0000 </r>
       <r>  -12.7787    1.0000 </r>
       <r>  -12.7512    1.0000 </r>
       <r>  -12.7512    1.0000 </r>
       <r>  -12.7104    1.0000 </r>
       <r>  -12.7091    1.0000 </r>
       <r>   -7.9991    1.0000 </r>
       <r>   -7.9991    1.0000 </r>
       <r>   -7.9881    1.0000 </r>
       <r>   -6.9784    1.0000 </r>
       <r>    1.2052    1.0000 </r>
       <r>    1.2052    1.0000 </r>
       <r>    1.3764    1.0000 </r>
       <r>    4.0699    0.0000 </r>
       <r>    4.3091    0.0000 </r>
       <r>    4.3091    0.0000 </r>
       <r>    4.8400    0.0000 </r>
      </set>
     </set>
    </set>
   </array>
  </eigenvalues>
  <separator name="orbital magnetization" >
   <v name="MAGDIPOLOUT">      0.00000000      0.00000000      0.00000000</v>
  </separator>
  <dos>
   <i name="efermi">      1.97050320 </i>
   <total>
    <array>
     <dimension dim="1">gridpoints</dimension>
     <dimension dim="2">spin</dimension>
     <field>energy</field>
     <field>total</field>
     <field>integrated</field>
     <set>
      <set comment="spin 1">
       <r>   -30.9743     0.0000     0.0000 </r>
       <r>   -30.8471     0.0000     0.0000 </r>
       <r>   -30.7199     0.0000     0.0000 </r>
       <r>   -30.5926     0.0000     0.0000 </r>
       <r>   -30.4654     0.0000     0.0000 </r>
       <r>   -30.3382     0.0000     0.0000 </r>
       <r>   -30.2110     0.0000     0.0000 </r>
       <r>   -30.0838     0.0000     0.0000 </r>
       <r>   -29.9566     0.0000     0.0000 </r>
       <r>   -29.8294     0.0000     0.0000 </r>
       <r>   -29.7021     0.0000     0.0000 </r>
       <r>   -29.5749     0.0000     0.0000 </r>
       <r>   -29.4477     0.0000     0.0000 </r>
       <r>   -29.3205     0.2491     0.0317 </r>
       <r>   -29.1933    27.4594     3.5249 </r>
       <r>   -29.0661     3.7346     4.0000 </r>
       <r>   -28.9389     0.0000     4.0000 </r>
       <r>   -28.8116     0.0000     4.0000 </r>
       <r>   -28.6844     0.0000     4.0000 </r>
       <r>   -28.5572     0.0000     4.0000 </r>
       <r>   -28.4300     0.0000     4.0000 </r>
       <r>   -28.3028     0.0000     4.0000 </r>
       <r>   -28.1756     0.0000     4.0000 </r>
       <r>   -28.0484     0.0000     4.0000 </r>
       <r>   -27.9211     0.0000     4.0000 </r>
       <r>   -27.7939     0.0000     4.0000 </r>
       <r>   -27.6667     0.0000     4.0000 </r>
       <r>   -27.5395     0.0000     4.0000 </r>
       <r>   -27.4123     0.0000     4.0000 </r>
       <r>   -27.2851     0.0000     4.0000 </r>
       <r>   -27.1579     0.0000     4.0000 </r>
       <r>   -27.0306     0.0000     4.0000 </r>
       <r>   -26.9034     0.0000     4.0000 </r>
       <r>   -26.7762     0.0000     4.0000 </r>
       <r>   -26.6490     0.0000     4.0000 </r>
       <r>   -26.5218     0.0000     4.0000 </r>
       <r>   -26.3946     0.0000     4.0000 </r>
       <r>   -26.2674     0.0000     4.0000 </r>
       <r>   -26.1401     0.0000     4.0000 </r>
       <r>   -26.0129     0.0000     4.0000 </r>
       <r>   -25.8857     0.0000     4.0000 </r>
       <r>   -25.7585     0.0000     4.0000 </r>
       <r>   -25.6313     0.0000     4.0000 </r>
       <r>   -25.5041     0.0000     4.0000 </r>
       <r>   -25.3769     0.0000     4.0000 </r>
       <r>   -25.2497     0.0000     4.0000 </r>
       <r>   -25.1224     0.0000     4.0000 </r>
       <r>   -24.9952     0.0000     4.0000 </r>
       <r>   -24.8680     0.0000     4.0000 </r>
       <r>   -24.7408     0.0000     4.0000 </r>
       <r>   -24.6136     0.0000     4.0000 </r>
       <r>   -24.4864     0.0000     4.0000 </r>
       <r>   -24.3592     0.0000     4.0000 </r>
       <r>   -24.2319     0.0000     4.0000 </r>
       <r>   -24.1047     0.0000     4.0000 </r>
       <r>   -23.9775     0.0000     4.0000 </r>
       <r>   -23.8503     0.0000     4.0000 </r>
       <r>   -23.7231     0.0000     4.0000 </r>
       <r>   -23.5959     0.0000     4.0000 </r>
       <r>   -23.4687     0.0000     4.0000 </r>
       <r>   -23.3414     0.0000     4.0000 </r>
       <r>   -23.2142     0.0000     4.0000 </r>
       <r>   -23.0870     0.0000     4.0000 </r>
       <r>   -22.9598     0.0000     4.0000 </r>
       <r>   -22.8326     0.0000     4.0000 </r>
       <r>   -22.7054     0.0000     4.0000 </r>
       <r>   -22.5782     0.0000     4.0000 </r>
       <r>   -22.4509     0.0000     4.0000 </r>
       <r>   -22.3237     0.0000     4.0000 </r>
       <r>   -22.1965     0.0000     4.0000 </r>
       <r>   -22.0693     0.0000     4.0000 </r>
       <r>   -21.9421     0.0000     4.0000 </r>
       <r>   -21.8149     0.0000     4.0000 </r>
       <r>   -21.6877     0.0000     4.0000 </r>
       <r>   -21.5604     0.0000     4.0000 </r>
       <r>   -21.4332     0.0000     4.0000 </r>
       <r>   -21.3060     0.0000     4.0000 </r>
       <r>   -21.1788     1.5633     4.1989 </r>
       <r>   -21.0516    13.9954     5.9793 </r>
       <r>   -20.9244     0.1628     6.0000 </r>
       <r>   -20.7972     0.0000     6.0000 </r>
       <r>   -20.6699     0.0000     6.0000 </r>
       <r>   -20.5427     0.0000     6.0000 </r>
       <r>   -20.4155     0.0000     6.0000 </r>
       <r>   -20.2883     0.0000     6.0000 </r>
       <r>   -20.1611     0.0000     6.0000 </r>
       <r>   -20.0339     0.0000     6.0000 </r>
       <r>   -19.9067     0.0000     6.0000 </r>
       <r>   -19.7794     0.0000     6.0000 </r>
       <r>   -19.6522     0.0000     6.0000 </r>
       <r>   -19.5250     0.0000     6.0000 </r>
       <r>   -19.3978     0.0000     6.0000 </r>
       <r>   -19.2706     0.0000     6.0000 </r>
       <r>   -19.1434     2.4339     6.3096 </r>
       <r>   -19.0162    72.8566    15.5780 </r>
       <r>   -18.8889     3.3172    16.0000 </r>
       <r>   -18.7617     0.0000    16.0000 </r>
       <r>   -18.6345     0.0000    16.0000 </r>
       <r>   -18.5073     0.0000    16.0000 </r>
       <r>   -18.3801     0.0000    16.0000 </r>
       <r>   -18.2529     0.0000    16.0000 </r>
       <r>   -18.1257     0.0000    16.0000 </r>
       <r>   -17.9984     0.0000    16.0000 </r>
       <r>   -17.8712     0.0000    16.0000 </r>
       <r>   -17.7440     0.0000    16.0000 </r>
       <r>   -17.6168     0.0000    16.0000 </r>
       <r>   -17.4896     0.0000    16.0000 </r>
       <r>   -17.3624     0.0000    16.0000 </r>
       <r>   -17.2352     0.0000    16.0000 </r>
       <r>   -17.1080     0.0000    16.0000 </r>
       <r>   -16.9807     0.0000    16.0000 </r>
       <r>   -16.8535     0.0000    16.0000 </r>
       <r>   -16.7263     0.0000    16.0000 </r>
       <r>   -16.5991     0.0000    16.0000 </r>
       <r>   -16.4719     0.0000    16.0000 </r>
       <r>   -16.3447     0.0000    16.0000 </r>
       <r>   -16.2175     0.0000    16.0000 </r>
       <r>   -16.0902     0.0000    16.0000 </r>
       <r>   -15.9630     0.0000    16.0000 </r>
       <r>   -15.8358     0.0000    16.0000 </r>
       <r>   -15.7086     0.0000    16.0000 </r>
       <r>   -15.5814     0.0000    16.0000 </r>
       <r>   -15.4542     0.0000    16.0000 </r>
       <r>   -15.3270     0.0000    16.0000 </r>
       <r>   -15.1997     0.0000    16.0000 </r>
       <r>   -15.0725     0.0000    16.0000 </r>
       <r>   -14.9453     0.0000    16.0000 </r>
       <r>   -14.8181     0.0000    16.0000 </r>
       <r>   -14.6909     0.0000    16.0000 </r>
       <r>   -14.5637     0.0000    16.0000 </r>
       <r>   -14.4365     0.0000    16.0000 </r>
       <r>   -14.3092     0.0000    16.0000 </r>
       <r>   -14.1820     0.0000    16.0000 </r>
       <r>   -14.0548     0.0000    16.0000 </r>
       <r>   -13.9276     0.0000    16.0000 </r>
       <r>   -13.8004     0.0000    16.0000 </r>
       <r>   -13.6732     0.0000    16.0000 </r>
       <r>   -13.5460     0.0000    16.0000 </r>
       <r>   -13.4187     0.0000    16.0000 </r>
       <r>   -13.2915     0.0000    16.0000 </r>
       <r>   -13.1643     0.0000    16.0000 </r>
       <r>   -13.0371     0.0000    16.0000 </r>
       <r>   -12.9099     0.0054    16.0007 </r>
       <r>   -12.7827    21.4470    18.7290 </r>
       <r>   -12.6555    71.5409    27.8300 </r>
       <r>   -12.5282     1.3360    28.0000 </r>
       <r>   -12.4010     0.0000    28.0000 </r>
       <r>   -12.2738     0.0000    28.0000 </r>
       <r>   -12.1466     0.0000    28.0000 </r>
       <r>   -12.0194     0.0000    28.0000 </r>
       <r>   -11.8922     0.0000    28.0000 </r>
       <r>   -11.7650     0.0000    28.0000 </r>
       <r>   -11.6377     0.0000    28.0000 </r>
       <r>   -11.5105     0.0000    28.0000 </r>
       <r>   -11.3833     0.0000    28.0000 </r>
       <r>   -11.2561     0.0000    28.0000 </r>
       <r>   -11.1289     0.0000    28.0000 </r>
       <r>   -11.0017     0.0000    28.0000 </r>
       <r>   -10.8745     0.0000    28.0000 </r>
       <r>   -10.7472     0.0000    28.0000 </r>
       <r>   -10.6200     0.0000    28.0000 </r>
       <r>   -10.4928     0.0000    28.0000 </r>
       <r>   -10.3656     0.0000    28.0000 </r>
       <r>   -10.2384     0.0000    28.0000 </r>
       <r>   -10.1112     0.0000    28.0000 </r>
       <r>    -9.9840     0.0000    28.0000 </r>
       <r>    -9.8568     0.0000    28.0000 </r>
       <r>    -9.7295     0.0000    28.0000 </r>
       <r>    -9.6023     0.0000    28.0000 </r>
       <r>    -9.4751     0.0000    28.0000 </r>
       <r>    -9.3479     0.0000    28.0000 </r>
       <r>    -9.2207     0.0000    28.0000 </r>
       <r>    -9.0935     0.0000    28.0000 </r>
       <r>    -8.9663     0.0000    28.0000 </r>
       <r>    -8.8390     0.0000    28.0000 </r>
       <r>    -8.7118     0.0000    28.0000 </r>
       <r>    -8.5846     0.0000    28.0000 </r>
       <r>    -8.4574     0.0000    28.0000 </r>
       <r>    -8.3302     0.0000    28.0000 </r>
       <r>    -8.2030     0.0001    28.0000 </r>
       <r>    -8.0758     2.1672    28.2757 </r>
       <r>    -7.9485    39.0209    33.2397 </r>
       <r>    -7.8213     5.9762    34.0000 </r>
       <r>    -7.6941     0.0001    34.0000 </r>
       <r>    -7.5669     0.0000    34.0000 </r>
       <r>    -7.4397     0.0000    34.0000 </r>
       <r>    -7.3125     0.0000    34.0000 </r>
       <r>    -7.1853     0.0001    34.0000 </r>
       <r>    -7.0580     0.4365    34.0555 </r>
       <r>    -6.9308    12.7993    35.6838 </r>
       <r>    -6.8036     2.4854    36.0000 </r>
       <r>    -6.6764     0.0002    36.0000 </r>
       <r>    -6.5492     0.0000    36.0000 </r>
       <r>    -6.4220     0.0000    36.0000 </r>
       <r>    -6.2948     0.0000    36.0000 </r>
       <r>    -6.1675     0.0000    36.0000 </r>
       <r>    -6.0403     0.0000    36.0000 </r>
       <r>    -5.9131     0.0000    36.0000 </r>
       <r>    -5.7859     0.0000    36.0000 </r>
       <r>    -5.6587     0.0000    36.0000 </r>
       <r>    -5.5315     0.0000    36.0000 </r>
       <r>    -5.4043     0.0000    36.0000 </r>
       <r>    -5.2770     0.0000    36.0000 </r>
       <r>    -5.1498     0.0000    36.0000 </r>
       <r>    -5.0226     0.0000    36.0000 </r>
       <r>    -4.8954     0.0000    36.0000 </r>
       <r>    -4.7682     0.0000    36.0000 </r>
       <r>    -4.6410     0.0000    36.0000 </r>
       <r>    -4.5138     0.0000    36.0000 </r>
       <r>    -4.3865     0.0000    36.0000 </r>
       <r>    -4.2593     0.0000    36.0000 </r>
       <r>    -4.1321     0.0000    36.0000 </r>
       <r>    -4.0049     0.0000    36.0000 </r>
       <r>    -3.8777     0.0000    36.0000 </r>
       <r>    -3.7505     0.0000    36.0000 </r>
       <r>    -3.6233     0.0000    36.0000 </r>
       <r>    -3.4960     0.0000    36.0000 </r>
       <r>    -3.3688     0.0000    36.0000 </r>
       <r>    -3.2416     0.0000    36.0000 </r>
       <r>    -3.1144     0.0000    36.0000 </r>
       <r>    -2.9872     0.0000    36.0000 </r>
       <r>    -2.8600     0.0000    36.0000 </r>
       <r>    -2.7328     0.0000    36.0000 </r>
       <r>    -2.6056     0.0000    36.0000 </r>
       <r>    -2.4783     0.0000    36.0000 </r>
       <r>    -2.3511     0.0000    36.0000 </r>
       <r>    -2.2239     0.0000    36.0000 </r>
       <r>    -2.0967     0.0000    36.0000 </r>
       <r>    -1.9695     0.0000    36.0000 </r>
       <r>    -1.8423     0.0000    36.0000 </r>
       <r>    -1.7151     0.0000    36.0000 </r>
       <r>    -1.5878     0.0000    36.0000 </r>
       <r>    -1.4606     0.0000    36.0000 </r>
       <r>    -1.3334     0.0000    36.0000 </r>
       <r>    -1.2062     0.0000    36.0000 </r>
       <r>    -1.0790     0.0000    36.0000 </r>
       <r>    -0.9518     0.0000    36.0000 </r>
       <r>    -0.8246     0.0000    36.0000 </r>
       <r>    -0.6973     0.0000    36.0000 </r>
       <r>    -0.5701     0.0000    36.0000 </r>
       <r>    -0.4429     0.0000    36.0000 </r>
       <r>    -0.3157     0.0000    36.0000 </r>
       <r>    -0.1885     0.0000    36.0000 </r>
       <r>    -0.0613     0.0000    36.0000 </r>
       <r>     0.0659     0.0000    36.0000 </r>
       <r>     0.1932     0.0000    36.0000 </r>
       <r>     0.3204     0.0000    36.0000 </r>
       <r>     0.4476     0.0000    36.0000 </r>
       <r>     0.5748     0.0860    36.0109 </r>
       <r>     0.7020     1.6035    36.2149 </r>
       <r>     0.8292     5.1350    36.8682 </r>
       <r>     0.9564     4.8128    37.4804 </r>
       <r>     1.0837     3.1891    37.8861 </r>
       <r>     1.2109     0.9000    38.0006 </r>
       <r>     1.3381     4.0370    38.5142 </r>
       <r>     1.4653     6.5392    39.3461 </r>
       <r>     1.5925    12.5278    40.9398 </r>
       <r>     1.7197     6.1623    41.7237 </r>
       <r>     1.8469     2.1308    41.9948 </r>
       <r>     1.9742     0.0412    42.0000 </r>
       <r>     2.1014     0.0101    42.0013 </r>
       <r>     2.2286     0.0206    42.0039 </r>
       <r>     2.3558     0.0000    42.0039 </r>
       <r>     2.4830     0.0000    42.0039 </r>
       <r>     2.6102     0.0000    42.0039 </r>
       <r>     2.7374     0.1606    42.0243 </r>
       <r>     2.8647     0.2689    42.0585 </r>
       <r>     2.9919     0.0005    42.0586 </r>
       <r>     3.1191     0.1003    42.0714 </r>
       <r>     3.2463     0.5718    42.1441 </r>
       <r>     3.3735     1.5374    42.3397 </r>
       <r>     3.5007     0.7007    42.4288 </r>
       <r>     3.6279     1.6710    42.6414 </r>
       <r>     3.7552     3.3157    43.0632 </r>
       <r>     3.8824     3.1500    43.4639 </r>
       <r>     4.0096     4.6482    44.0552 </r>
       <r>     4.1368     3.0382    44.4417 </r>
       <r>     4.2640     4.1475    44.9694 </r>
       <r>     4.3912     7.2879    45.8965 </r>
       <r>     4.5184     2.7361    46.2446 </r>
       <r>     4.6456     3.2552    46.6587 </r>
       <r>     4.7729     8.4999    47.7400 </r>
       <r>     4.9001     7.0262    48.6338 </r>
       <r>     5.0273     7.2419    49.5551 </r>
       <r>     5.1545     2.8772    49.9211 </r>
       <r>     5.2817     0.5275    49.9882 </r>
       <r>     5.4089     0.0095    49.9894 </r>
       <r>     5.5361     0.0823    49.9999 </r>
       <r>     5.6634     0.0010    50.0000 </r>
       <r>     5.7906     0.0000    50.0000 </r>
       <r>     5.9178     0.0000    50.0000 </r>
       <r>     6.0450     0.0000    50.0000 </r>
       <r>     6.1722     0.0000    50.0000 </r>
       <r>     6.2994     0.0000    50.0000 </r>
       <r>     6.4266     0.0000    50.0000 </r>
       <r>     6.5539     0.0000    50.0000 </r>
       <r>     6.6811     0.0000    50.0000 </r>
       <r>     6.8083     0.0000    50.0000 </r>
       <r>     6.9355     0.0000    50.0000 </r>
       <r>     7.0627     0.0000    50.0000 </r>
       <r>     7.1899     0.0000    50.0000 </r>
      </set>
     </set>
    </array>
   </total>
  </dos>
 </calculation>
 <structure name="finalpos" >
  <crystal>
   <varray name="basis" >
    <v>      -0.00000000       4.45935953       4.45935953 </v>
    <v>       4.45935953       0.00000000       4.45935953 </v>
    <v>       4.45935953       4.45935953      -0.00000000 </v>
   </varray>
   <i name="volume">    177.35664301 </i>
   <varray name="rec_basis" >
    <v>      -0.11212372       0.11212372       0.11212372 </v>
    <v>       0.11212372      -0.11212372       0.11212372 </v>
    <v>       0.11212372       0.11212372      -0.11212372 </v>
   </varray>
  </crystal>
  <varray name="positions" >
   <v>       0.25000051       0.25000051       0.25000051 </v>
   <v>       0.75000039       0.75000039       0.75000039 </v>
   <v>       0.00000000       0.00000000       0.00000000 </v>
   <v>       0.49999989       0.49999989       0.49999989 </v>
  </varray>
 </structure>
</modeling>
