unknown system                          
           1
     0.000000    4.442851    4.442851
     4.442851    0.000000    4.442851
     4.442851    4.442851    0.000000
   Bi   Cs   K 
   1   1   2
Direct configuration=     1
   0.25000051  0.25000051  0.25000051
   0.75000039  0.75000039  0.75000039
   0.00000000  0.00000000  0.00000000
   0.49999989  0.49999989  0.49999989
unknown system                          
           1
    -0.000000    4.451103    4.451103
     4.451103    0.000000    4.451103
     4.451103    4.451103   -0.000000
   Bi   Cs   K 
   1   1   2
Direct configuration=     2
   0.25000051  0.25000051  0.25000051
   0.75000039  0.75000039  0.75000039
   0.00000000  0.00000000  0.00000000
   0.49999989  0.49999989  0.49999989
unknown system                          
           1
    -0.000000    4.470170    4.470170
     4.470170    0.000000    4.470170
     4.470170    4.470170   -0.000000
   Bi   Cs   K 
   1   1   2
Direct configuration=     3
   0.25000051  0.25000051  0.25000051
   0.75000039  0.75000039  0.75000039
   0.00000000  0.00000000  0.00000000
   0.49999989  0.49999989  0.49999989
unknown system                          
           1
    -0.000000    4.463760    4.463760
     4.463760    0.000000    4.463760
     4.463760    4.463760   -0.000000
   Bi   Cs   K 
   1   1   2
Direct configuration=     4
   0.25000051  0.25000051  0.25000051
   0.75000039  0.75000039  0.75000039
   0.00000000  0.00000000  0.00000000
   0.49999989  0.49999989  0.49999989
unknown system                          
           1
    -0.000000    4.455682    4.455682
     4.455682    0.000000    4.455682
     4.455682    4.455682   -0.000000
   Bi   Cs   K 
   1   1   2
Direct configuration=     5
   0.25000051  0.25000051  0.25000051
   0.75000039  0.75000039  0.75000039
   0.00000000  0.00000000  0.00000000
   0.49999989  0.49999989  0.49999989
unknown system                          
           1
    -0.000000    4.459360    4.459360
     4.459360    0.000000    4.459360
     4.459360    4.459360   -0.000000
   Bi   Cs   K 
   1   1   2
Direct configuration=     6
   0.25000051  0.25000051  0.25000051
   0.75000039  0.75000039  0.75000039
   0.00000000  0.00000000  0.00000000
   0.49999989  0.49999989  0.49999989
