   4   4   0   0
  0.1927483E+02  0.4777366E-09  0.4777366E-09  0.4777366E-09  0.5000000E-15
  1.000000000000000E-004
  CAR 
 unknown system                          
     13.47244197    -45.54917166  301      3.85683741      1.00000000
    -45.549  0.0000E+00  0.0000E+00
    -45.352  0.0000E+00  0.0000E+00
    -45.156  0.0000E+00  0.0000E+00
    -44.959  0.0000E+00  0.0000E+00
    -44.762  0.0000E+00  0.0000E+00
    -44.565  0.0000E+00  0.0000E+00
    -44.369  0.0000E+00  0.0000E+00
    -44.172  0.0000E+00  0.0000E+00
    -43.975  0.0000E+00  0.0000E+00
    -43.779  0.0000E+00  0.0000E+00
    -43.582  0.0000E+00  0.0000E+00
    -43.385  0.0000E+00  0.0000E+00
    -43.188  0.0000E+00  0.0000E+00
    -42.992  0.3086E-04  0.6072E-05
    -42.795  0.1981E+00  0.3898E-01
    -42.598  0.5204E-02  0.4000E-01
    -42.401  0.0000E+00  0.4000E-01
    -42.205  0.0000E+00  0.4000E-01
    -42.008  0.0000E+00  0.4000E-01
    -41.811  0.0000E+00  0.4000E-01
    -41.614  0.0000E+00  0.4000E-01
    -41.418  0.0000E+00  0.4000E-01
    -41.221  0.0000E+00  0.4000E-01
    -41.024  0.0000E+00  0.4000E-01
    -40.827  0.0000E+00  0.4000E-01
    -40.631  0.0000E+00  0.4000E-01
    -40.434  0.0000E+00  0.4000E-01
    -40.237  0.0000E+00  0.4000E-01
    -40.040  0.0000E+00  0.4000E-01
    -39.844  0.0000E+00  0.4000E-01
    -39.647  0.0000E+00  0.4000E-01
    -39.450  0.0000E+00  0.4000E-01
    -39.254  0.0000E+00  0.4000E-01
    -39.057  0.0000E+00  0.4000E-01
    -38.860  0.0000E+00  0.4000E-01
    -38.663  0.0000E+00  0.4000E-01
    -38.467  0.0000E+00  0.4000E-01
    -38.270  0.0000E+00  0.4000E-01
    -38.073  0.0000E+00  0.4000E-01
    -37.876  0.0000E+00  0.4000E-01
    -37.680  0.0000E+00  0.4000E-01
    -37.483  0.0000E+00  0.4000E-01
    -37.286  0.0000E+00  0.4000E-01
    -37.089  0.0000E+00  0.4000E-01
    -36.893  0.0000E+00  0.4000E-01
    -36.696  0.0000E+00  0.4000E-01
    -36.499  0.0000E+00  0.4000E-01
    -36.302  0.0000E+00  0.4000E-01
    -36.106  0.0000E+00  0.4000E-01
    -35.909  0.0000E+00  0.4000E-01
    -35.712  0.0000E+00  0.4000E-01
    -35.515  0.0000E+00  0.4000E-01
    -35.319  0.0000E+00  0.4000E-01
    -35.122  0.0000E+00  0.4000E-01
    -34.925  0.0000E+00  0.4000E-01
    -34.729  0.0000E+00  0.4000E-01
    -34.532  0.0000E+00  0.4000E-01
    -34.335  0.0000E+00  0.4000E-01
    -34.138  0.0000E+00  0.4000E-01
    -33.942  0.0000E+00  0.4000E-01
    -33.745  0.0000E+00  0.4000E-01
    -33.548  0.0000E+00  0.4000E-01
    -33.351  0.0000E+00  0.4000E-01
    -33.155  0.0000E+00  0.4000E-01
    -32.958  0.0000E+00  0.4000E-01
    -32.761  0.0000E+00  0.4000E-01
    -32.564  0.0000E+00  0.4000E-01
    -32.368  0.0000E+00  0.4000E-01
    -32.171  0.0000E+00  0.4000E-01
    -31.974  0.0000E+00  0.4000E-01
    -31.777  0.0000E+00  0.4000E-01
    -31.581  0.0000E+00  0.4000E-01
    -31.384  0.0000E+00  0.4000E-01
    -31.187  0.0000E+00  0.4000E-01
    -30.991  0.0000E+00  0.4000E-01
    -30.794  0.0000E+00  0.4000E-01
    -30.597  0.0000E+00  0.4000E-01
    -30.400  0.0000E+00  0.4000E-01
    -30.204  0.0000E+00  0.4000E-01
    -30.007  0.0000E+00  0.4000E-01
    -29.810  0.0000E+00  0.4000E-01
    -29.613  0.0000E+00  0.4000E-01
    -29.417  0.0000E+00  0.4000E-01
    -29.220  0.0000E+00  0.4000E-01
    -29.023  0.0000E+00  0.4000E-01
    -28.826  0.0000E+00  0.4000E-01
    -28.630  0.0000E+00  0.4000E-01
    -28.433  0.0000E+00  0.4000E-01
    -28.236  0.0000E+00  0.4000E-01
    -28.039  0.0000E+00  0.4000E-01
    -27.843  0.0000E+00  0.4000E-01
    -27.646  0.0000E+00  0.4000E-01
    -27.449  0.0000E+00  0.4000E-01
    -27.252  0.0000E+00  0.4000E-01
    -27.056  0.0000E+00  0.4000E-01
    -26.859  0.0000E+00  0.4000E-01
    -26.662  0.0000E+00  0.4000E-01
    -26.466  0.0000E+00  0.4000E-01
    -26.269  0.0000E+00  0.4000E-01
    -26.072  0.0000E+00  0.4000E-01
    -25.875  0.0000E+00  0.4000E-01
    -25.679  0.0000E+00  0.4000E-01
    -25.482  0.0000E+00  0.4000E-01
    -25.285  0.0000E+00  0.4000E-01
    -25.088  0.0000E+00  0.4000E-01
    -24.892  0.0000E+00  0.4000E-01
    -24.695  0.0000E+00  0.4000E-01
    -24.498  0.0000E+00  0.4000E-01
    -24.301  0.0000E+00  0.4000E-01
    -24.105  0.0000E+00  0.4000E-01
    -23.908  0.0000E+00  0.4000E-01
    -23.711  0.0000E+00  0.4000E-01
    -23.514  0.0000E+00  0.4000E-01
    -23.318  0.0000E+00  0.4000E-01
    -23.121  0.0000E+00  0.4000E-01
    -22.924  0.0000E+00  0.4000E-01
    -22.727  0.0000E+00  0.4000E-01
    -22.531  0.0000E+00  0.4000E-01
    -22.334  0.0000E+00  0.4000E-01
    -22.137  0.0000E+00  0.4000E-01
    -21.941  0.0000E+00  0.4000E-01
    -21.744  0.0000E+00  0.4000E-01
    -21.547  0.0000E+00  0.4000E-01
    -21.350  0.0000E+00  0.4000E-01
    -21.154  0.0000E+00  0.4000E-01
    -20.957  0.1109E-03  0.4002E-01
    -20.760  0.3005E+00  0.9913E-01
    -20.563  0.4410E-02  0.1000E+00
    -20.367  0.0000E+00  0.1000E+00
    -20.170  0.0000E+00  0.1000E+00
    -19.973  0.0000E+00  0.1000E+00
    -19.776  0.0000E+00  0.1000E+00
    -19.580  0.0000E+00  0.1000E+00
    -19.383  0.0000E+00  0.1000E+00
    -19.186  0.0000E+00  0.1000E+00
    -18.989  0.0000E+00  0.1000E+00
    -18.793  0.0000E+00  0.1000E+00
    -18.596  0.0000E+00  0.1000E+00
    -18.399  0.0000E+00  0.1000E+00
    -18.202  0.0000E+00  0.1000E+00
    -18.006  0.0000E+00  0.1000E+00
    -17.809  0.0000E+00  0.1000E+00
    -17.612  0.0000E+00  0.1000E+00
    -17.416  0.0000E+00  0.1000E+00
    -17.219  0.0000E+00  0.1000E+00
    -17.022  0.0000E+00  0.1000E+00
    -16.825  0.0000E+00  0.1000E+00
    -16.629  0.0000E+00  0.1000E+00
    -16.432  0.0000E+00  0.1000E+00
    -16.235  0.0000E+00  0.1000E+00
    -16.038  0.0000E+00  0.1000E+00
    -15.842  0.0000E+00  0.1000E+00
    -15.645  0.0000E+00  0.1000E+00
    -15.448  0.0000E+00  0.1000E+00
    -15.251  0.0000E+00  0.1000E+00
    -15.055  0.0000E+00  0.1000E+00
    -14.858  0.0000E+00  0.1000E+00
    -14.661  0.0000E+00  0.1000E+00
    -14.464  0.0000E+00  0.1000E+00
    -14.268  0.0000E+00  0.1000E+00
    -14.071  0.0000E+00  0.1000E+00
    -13.874  0.0000E+00  0.1000E+00
    -13.678  0.0000E+00  0.1000E+00
    -13.481  0.0000E+00  0.1000E+00
    -13.284  0.0000E+00  0.1000E+00
    -13.087  0.0000E+00  0.1000E+00
    -12.891  0.0000E+00  0.1000E+00
    -12.694  0.0000E+00  0.1000E+00
    -12.497  0.0000E+00  0.1000E+00
    -12.300  0.0000E+00  0.1000E+00
    -12.104  0.0000E+00  0.1000E+00
    -11.907  0.0000E+00  0.1000E+00
    -11.710  0.0000E+00  0.1000E+00
    -11.513  0.0000E+00  0.1000E+00
    -11.317  0.0000E+00  0.1000E+00
    -11.120  0.0000E+00  0.1000E+00
    -10.923  0.0000E+00  0.1000E+00
    -10.726  0.0000E+00  0.1000E+00
    -10.530  0.0000E+00  0.1000E+00
    -10.333  0.0000E+00  0.1000E+00
    -10.136  0.0000E+00  0.1000E+00
     -9.939  0.0000E+00  0.1000E+00
     -9.743  0.0000E+00  0.1000E+00
     -9.546  0.0000E+00  0.1000E+00
     -9.349  0.0000E+00  0.1000E+00
     -9.153  0.0000E+00  0.1000E+00
     -8.956  0.0000E+00  0.1000E+00
     -8.759  0.0000E+00  0.1000E+00
     -8.562  0.0000E+00  0.1000E+00
     -8.366  0.0000E+00  0.1000E+00
     -8.169  0.0000E+00  0.1000E+00
     -7.972  0.0000E+00  0.1000E+00
     -7.775  0.0000E+00  0.1000E+00
     -7.579  0.0000E+00  0.1000E+00
     -7.382  0.0000E+00  0.1000E+00
     -7.185  0.0000E+00  0.1000E+00
     -6.988  0.0000E+00  0.1000E+00
     -6.792  0.0000E+00  0.1000E+00
     -6.595  0.0000E+00  0.1000E+00
     -6.398  0.0000E+00  0.1000E+00
     -6.201  0.0000E+00  0.1000E+00
     -6.005  0.0000E+00  0.1000E+00
     -5.808  0.0000E+00  0.1000E+00
     -5.611  0.8385E-11  0.1000E+00
     -5.414  0.1687E-03  0.1000E+00
     -5.218  0.4839E-02  0.1010E+00
     -5.021  0.1169E-01  0.1033E+00
     -4.824  0.2518E-01  0.1082E+00
     -4.628  0.5464E-01  0.1190E+00
     -4.431  0.5148E-02  0.1200E+00
     -4.234  0.2683E-10  0.1200E+00
     -4.037  0.0000E+00  0.1200E+00
     -3.841  0.0000E+00  0.1200E+00
     -3.644  0.0000E+00  0.1200E+00
     -3.447  0.0000E+00  0.1200E+00
     -3.250  0.0000E+00  0.1200E+00
     -3.054  0.0000E+00  0.1200E+00
     -2.857  0.0000E+00  0.1200E+00
     -2.660  0.0000E+00  0.1200E+00
     -2.463  0.0000E+00  0.1200E+00
     -2.267  0.0000E+00  0.1200E+00
     -2.070  0.0000E+00  0.1200E+00
     -1.873  0.0000E+00  0.1200E+00
     -1.676  0.0000E+00  0.1200E+00
     -1.480  0.0000E+00  0.1200E+00
     -1.283  0.0000E+00  0.1200E+00
     -1.086  0.0000E+00  0.1200E+00
     -0.889  0.0000E+00  0.1200E+00
     -0.693  0.0000E+00  0.1200E+00
     -0.496  0.0000E+00  0.1200E+00
     -0.299  0.1763E-18  0.1200E+00
     -0.103  0.4236E-05  0.1200E+00
      0.094  0.1516E-02  0.1203E+00
      0.291  0.1055E-01  0.1224E+00
      0.488  0.1107E-01  0.1246E+00
      0.684  0.2754E-01  0.1300E+00
      0.881  0.2213E-01  0.1343E+00
      1.078  0.1330E-01  0.1369E+00
      1.275  0.1772E-01  0.1404E+00
      1.471  0.1200E-01  0.1428E+00
      1.668  0.1737E-01  0.1462E+00
      1.865  0.3593E-01  0.1533E+00
      2.062  0.1842E-01  0.1569E+00
      2.258  0.2375E-01  0.1616E+00
      2.455  0.2864E-01  0.1672E+00
      2.652  0.1670E-01  0.1705E+00
      2.849  0.2385E-01  0.1752E+00
      3.045  0.8742E-02  0.1769E+00
      3.242  0.9581E-02  0.1788E+00
      3.439  0.5215E-02  0.1798E+00
      3.636  0.9383E-03  0.1800E+00
      3.832  0.1494E-05  0.1800E+00
      4.029  0.2789E-10  0.1800E+00
      4.226  0.3511E-03  0.1801E+00
      4.422  0.2446E-03  0.1801E+00
      4.619  0.1343E-02  0.1804E+00
      4.816  0.4613E-02  0.1813E+00
      5.013  0.7800E-03  0.1814E+00
      5.209  0.4125E-02  0.1823E+00
      5.406  0.1299E-01  0.1848E+00
      5.603  0.3884E-02  0.1856E+00
      5.800  0.1499E-01  0.1885E+00
      5.996  0.1679E-01  0.1918E+00
      6.193  0.3268E-01  0.1983E+00
      6.390  0.2022E-01  0.2022E+00
      6.587  0.2322E-01  0.2068E+00
      6.783  0.4368E-01  0.2154E+00
      6.980  0.2085E-01  0.2195E+00
      7.177  0.1408E-01  0.2223E+00
      7.374  0.1390E-01  0.2250E+00
      7.570  0.2861E-01  0.2306E+00
      7.767  0.1517E-01  0.2336E+00
      7.964  0.1713E-01  0.2370E+00
      8.160  0.2736E-01  0.2424E+00
      8.357  0.2175E-01  0.2466E+00
      8.554  0.4728E-02  0.2476E+00
      8.751  0.1382E-05  0.2476E+00
      8.947  0.3628E-02  0.2483E+00
      9.144  0.2239E-01  0.2527E+00
      9.341  0.1685E-01  0.2560E+00
      9.538  0.8022E-03  0.2562E+00
      9.734  0.1583E-01  0.2593E+00
      9.931  0.2448E-02  0.2598E+00
     10.128  0.6147E-07  0.2598E+00
     10.325  0.0000E+00  0.2598E+00
     10.521  0.1931E-16  0.2598E+00
     10.718  0.2563E-04  0.2598E+00
     10.915  0.1165E-02  0.2600E+00
     11.112  0.2373E-06  0.2600E+00
     11.308  0.0000E+00  0.2600E+00
     11.505  0.0000E+00  0.2600E+00
     11.702  0.0000E+00  0.2600E+00
     11.899  0.0000E+00  0.2600E+00
     12.095  0.0000E+00  0.2600E+00
     12.292  0.0000E+00  0.2600E+00
     12.489  0.0000E+00  0.2600E+00
     12.685  0.0000E+00  0.2600E+00
     12.882  0.0000E+00  0.2600E+00
     13.079  0.0000E+00  0.2600E+00
     13.276  0.0000E+00  0.2600E+00
     13.472  0.0000E+00  0.2600E+00
