    4    4  100    1
  0.1927483E+02  0.4777366E-09  0.4777366E-09  0.4777366E-09  0.5000000E-15
  1.000000000000000E-004
  CAR 
 unknown system                          
     18     29     13
 
  0.0000000E+00  0.0000000E+00  0.0000000E+00  0.1953125E-02
    1      -42.866371   1.000000
    2      -42.861325   1.000000
    3      -20.836256   1.000000
    4      -20.836251   1.000000
    5      -20.836247   1.000000
    6       -5.421803   1.000000
    7        3.536284   1.000000
    8        3.536297   1.000000
    9        3.536311   1.000000
   10        5.158879   0.000000
   11        6.184985   0.000000
   12        6.184993   0.000000
   13        6.184997   0.000000
 
  0.1250000E+00  0.0000000E+00  0.0000000E+00  0.1562500E-01
    1      -42.866193   1.000000
    2      -42.861474   1.000000
    3      -20.836628   1.000000
    4      -20.836297   1.000000
    5      -20.836291   1.000000
    6       -5.347788   1.000000
    7        2.569020   1.000000
    8        3.386226   1.000000
    9        3.386243   1.000000
   10        5.583783   0.000000
   11        6.436485   0.000000
   12        6.436497   0.000000
   13        6.876507   0.000000
 
  0.2500000E+00  0.0000000E+00  0.0000000E+00  0.1562500E-01
    1      -42.865640   1.000000
    2      -42.861983   1.000000
    3      -20.837576   1.000000
    4      -20.836401   1.000000
    5      -20.836395   1.000000
    6       -5.150968   1.000000
    7        1.277927   1.000000
    8        3.106299   1.000000
    9        3.106318   1.000000
   10        5.755938   0.000000
   11        6.681611   0.000000
   12        6.681635   0.000000
   13        8.218604   0.000000
 
  0.3750000E+00  0.0000000E+00  0.0000000E+00  0.1562500E-01
    1      -42.864802   1.000000
    2      -42.862804   1.000000
    3      -20.838528   1.000000
    4      -20.836512   1.000000
    5      -20.836506   1.000000
    6       -4.919572   1.000000
    7        0.338879   1.000000
    8        2.892048   1.000000
    9        2.892068   1.000000
   10        5.837814   0.000000
   11        6.497098   0.000000
   12        6.497128   0.000000
   13        8.861838   0.000000
 
  0.5000000E+00  0.0000000E+00  0.0000000E+00  0.7812500E-02
    1      -42.863788   1.000000
    2      -42.863777   1.000000
    3      -20.838918   1.000000
    4      -20.836557   1.000000
    5      -20.836551   1.000000
    6       -4.809500   1.000000
    7       -0.012252   1.000000
    8        2.815495   1.000000
    9        2.815515   1.000000
   10        5.866476   0.000000
   11        6.381161   0.000000
   12        6.381192   0.000000
   13        8.967646   0.000000
 
  0.0000000E+00  0.1250000E+00  0.0000000E+00  0.1171875E-01
    1      -42.866125   1.000000
    2      -42.861512   1.000000
    3      -20.836552   1.000000
    4      -20.836408   1.000000
    5      -20.836406   1.000000
    6       -5.323690   1.000000
    7        2.697742   1.000000
    8        3.090286   1.000000
    9        3.090288   1.000000
   10        5.979521   0.000000
   11        6.164150   0.000000
   12        6.862385   0.000000
   13        6.862389   0.000000
 
  0.1250000E+00  0.1250000E+00  0.0000000E+00  0.4687500E-01
    1      -42.865734   1.000000
    2      -42.861884   1.000000
    3      -20.837267   1.000000
    4      -20.836566   1.000000
    5      -20.836474   1.000000
    6       -5.168873   1.000000
    7        1.655582   1.000000
    8        2.768177   1.000000
    9        2.920422   1.000000
   10        6.041848   0.000000
   11        6.444070   0.000000
   12        7.189502   0.000000
   13        7.318936   0.000000
 
  0.2500000E+00  0.1250000E+00  0.0000000E+00  0.4687500E-01
    1      -42.865036   1.000000
    2      -42.862570   1.000000
    3      -20.838188   1.000000
    4      -20.836676   1.000000
    5      -20.836610   1.000000
    6       -4.946745   1.000000
    7        0.661065   1.000000
    8        2.586388   1.000000
    9        2.641434   1.000000
   10        5.935627   0.000000
   11        6.698421   0.000000
   12        7.179429   0.000000
   13        7.728564   0.000000
 
  0.3750000E+00  0.1250000E+00  0.0000000E+00  0.4687500E-01
    1      -42.864140   1.000000
    2      -42.863455   1.000000
    3      -20.838743   1.000000
    4      -20.836773   1.000000
    5      -20.836676   1.000000
    6       -4.788600   1.000000
    7        0.130452   1.000000
    8        2.379794   1.000000
    9        2.593923   1.000000
   10        5.938385   0.000000
   11        6.670319   0.000000
   12        6.873789   0.000000
   13        8.996792   0.000000
 
  0.5000000E+00  0.1250000E+00  0.0000000E+00  0.4687500E-01
    1      -42.864415   1.000000
    2      -42.863172   1.000000
    3      -20.838618   1.000000
    4      -20.836852   1.000000
    5      -20.836552   1.000000
    6       -4.824639   1.000000
    7        0.239600   1.000000
    8        2.260595   1.000000
    9        2.783050   1.000000
   10        6.068928   0.000000
   11        6.701676   0.000000
   12        6.750533   0.000000
   13        9.174331   0.000000
 
 -0.3750000E+00  0.1250000E+00  0.0000000E+00  0.4687500E-01
    1      -42.865281   1.000000
    2      -42.862333   1.000000
    3      -20.837902   1.000000
    4      -20.836790   1.000000
    5      -20.836393   1.000000
    6       -5.022155   1.000000
    7        0.934313   1.000000
    8        2.346967   1.000000
    9        3.095594   1.000000
   10        6.121912   0.000000
   11        6.804825   0.000000
   12        6.941028   0.000000
   13        8.051263   0.000000
 
 -0.2500000E+00  0.1250000E+00  0.0000000E+00  0.2343750E-01
    1      -42.865895   1.000000
    2      -42.861739   1.000000
    3      -20.837070   1.000000
    4      -20.836567   1.000000
    5      -20.836285   1.000000
    6       -5.232909   1.000000
    7        1.901535   1.000000
    8        2.726997   1.000000
    9        3.381816   1.000000
   10        5.935353   0.000000
   11        6.563830   0.000000
   12        7.057939   0.000000
   13        7.261886   0.000000
 
  0.0000000E+00  0.2500000E+00  0.0000000E+00  0.1171875E-01
    1      -42.865524   1.000000
    2      -42.862034   1.000000
    3      -20.837314   1.000000
    4      -20.836800   1.000000
    5      -20.836798   1.000000
    6       -5.068730   1.000000
    7        1.635911   1.000000
    8        2.400523   1.000000
    9        2.400525   1.000000
   10        5.546809   0.000000
   11        6.117139   0.000000
   12        8.166167   0.000000
   13        8.166168   0.000000
 
  0.1250000E+00  0.2500000E+00  0.0000000E+00  0.4687500E-01
    1      -42.865079   1.000000
    2      -42.862522   1.000000
    3      -20.837924   1.000000
    4      -20.836985   1.000000
    5      -20.836968   1.000000
    6       -4.892092   1.000000
    7        0.999496   1.000000
    8        2.092949   1.000000
    9        2.186619   1.000000
   10        5.283502   0.000000
   11        6.420067   0.000000
   12        8.204921   0.000000
   13        8.404254   0.000000
 
  0.2500000E+00  0.2500000E+00  0.0000000E+00  0.4687500E-01
    1      -42.864429   1.000000
    2      -42.863170   1.000000
    3      -20.838370   1.000000
    4      -20.837255   1.000000
    5      -20.836965   1.000000
    6       -4.734659   1.000000
    7        0.503407   1.000000
    8        1.685462   1.000000
    9        2.183518   1.000000
   10        5.385467   0.000000
   11        7.421647   0.000000
   12        8.060470   0.000000
   13        8.082108   0.000000
 
  0.3750000E+00  0.2500000E+00  0.0000000E+00  0.4687500E-01
    1      -42.863940   1.000000
    2      -42.863658   1.000000
    3      -20.838375   1.000000
    4      -20.837485   1.000000
    5      -20.836794   1.000000
    6       -4.710523   1.000000
    7        0.420753   1.000000
    8        1.436706   1.000000
    9        2.390688   1.000000
   10        5.658835   0.000000
   11        7.816835   0.000000
   12        7.862910   0.000000
   13        8.974181   0.000000
 
  0.5000000E+00  0.2500000E+00  0.0000000E+00  0.2343750E-01
    1      -42.864677   1.000000
    2      -42.862947   1.000000
    3      -20.838138   1.000000
    4      -20.837341   1.000000
    5      -20.836559   1.000000
    6       -4.839478   1.000000
    7        0.657094   1.000000
    8        1.611477   1.000000
    9        2.752193   1.000000
   10        6.028383   0.000000
   11        7.509833   0.000000
   12        7.693746   0.000000
   13        7.848120   0.000000
 
  0.0000000E+00  0.3750000E+00  0.0000000E+00  0.1171875E-01
    1      -42.864939   1.000000
    2      -42.862640   1.000000
    3      -20.838089   1.000000
    4      -20.837202   1.000000
    5      -20.837200   1.000000
    6       -4.780852   1.000000
    7        0.900364   1.000000
    8        1.921897   1.000000
    9        1.921899   1.000000
   10        4.582044   0.000000
   11        6.073118   0.000000
   12        9.553821   0.000000
   13        9.553822   0.000000
 
  0.1250000E+00  0.3750000E+00  0.0000000E+00  0.4687500E-01
    1      -42.864614   1.000000
    2      -42.862977   1.000000
    3      -20.838281   1.000000
    4      -20.837452   1.000000
    5      -20.837250   1.000000
    6       -4.675286   1.000000
    7        0.720499   1.000000
    8        1.505665   1.000000
    9        1.868856   1.000000
   10        4.671754   0.000000
   11        6.370261   0.000000
   12        9.638450   0.000000
   13        9.660843   0.000000
 
  0.2500000E+00  0.3750000E+00  0.0000000E+00  0.2343750E-01
    1      -42.864168   1.000000
    2      -42.863427   1.000000
    3      -20.838098   1.000000
    4      -20.837871   1.000000
    5      -20.837080   1.000000
    6       -4.645207   1.000000
    7        0.879152   1.000000
    8        0.880307   1.000000
    9        2.038417   1.000000
   10        5.153219   0.000000
   11        7.377820   0.000000
   12        9.144599   0.000000
   13        9.206667   0.000000
 
  0.0000000E+00  0.5000000E+00  0.0000000E+00  0.5859375E-02
    1      -42.864679   1.000000
    2      -42.862874   1.000000
    3      -20.838401   1.000000
    4      -20.837370   1.000000
    5      -20.837368   1.000000
    6       -4.648915   1.000000
    7        0.632831   1.000000
    8        1.755870   1.000000
    9        1.755873   1.000000
   10        4.217734   0.000000
   11        6.056307   0.000000
   12       10.789641   0.000000
   13       10.789641   0.000000
 
  0.1250000E+00  0.1250000E+00  0.1250000E+00  0.4687500E-01
    1      -42.865275   1.000000
    2      -42.862301   1.000000
    3      -20.837725   1.000000
    4      -20.836956   1.000000
    5      -20.836559   1.000000
    6       -5.001037   1.000000
    7        1.140633   1.000000
    8        2.119134   1.000000
    9        2.746842   1.000000
   10        6.094896   0.000000
   11        6.656043   0.000000
   12        6.984262   0.000000
   13        8.218080   0.000000
 
  0.2500000E+00  0.1250000E+00  0.1250000E+00  0.9375000E-01
    1      -42.864602   1.000000
    2      -42.862994   1.000000
    3      -20.838284   1.000000
    4      -20.837185   1.000000
    5      -20.836724   1.000000
    6       -4.809329   1.000000
    7        0.554842   1.000000
    8        1.818925   1.000000
    9        2.432450   1.000000
   10        6.189134   0.000000
   11        6.652123   0.000000
   12        7.544673   0.000000
   13        8.296116   0.000000
 
  0.3750000E+00  0.1250000E+00  0.1250000E+00  0.4687500E-01
    1      -42.863784   1.000000
    2      -42.863778   1.000000
    3      -20.838533   1.000000
    4      -20.837213   1.000000
    5      -20.836827   1.000000
    6       -4.720722   1.000000
    7        0.298955   1.000000
    8        1.774390   1.000000
    9        2.263441   1.000000
   10        6.322377   0.000000
   11        6.396324   0.000000
   12        8.114659   0.000000
   13        9.062203   0.000000
 
  0.1250000E+00  0.2500000E+00  0.1250000E+00  0.4687500E-01
    1      -42.864683   1.000000
    2      -42.862925   1.000000
    3      -20.838154   1.000000
    4      -20.837356   1.000000
    5      -20.837085   1.000000
    6       -4.748355   1.000000
    7        0.777813   1.000000
    8        1.680540   1.000000
    9        1.895436   1.000000
   10        5.320513   0.000000
   11        6.618564   0.000000
   12        7.989098   0.000000
   13        9.664575   0.000000
 
  0.2500000E+00  0.2500000E+00  0.1250000E+00  0.9375000E-01
    1      -42.864127   1.000000
    2      -42.863476   1.000000
    3      -20.838179   1.000000
    4      -20.837653   1.000000
    5      -20.837149   1.000000
    6       -4.657150   1.000000
    7        0.691664   1.000000
    8        1.268371   1.000000
    9        1.779461   1.000000
   10        5.759774   0.000000
   11        7.498585   0.000000
   12        7.579731   0.000000
   13        9.238512   0.000000
 
  0.3750000E+00  0.2500000E+00  0.1250000E+00  0.4687500E-01
    1      -42.864039   1.000000
    2      -42.863544   1.000000
    3      -20.838128   1.000000
    4      -20.837724   1.000000
    5      -20.836958   1.000000
    6       -4.684699   1.000000
    7        0.643404   1.000000
    8        1.228959   1.000000
    9        2.033143   1.000000
   10        6.199445   0.000000
   11        7.028285   0.000000
   12        7.959831   0.000000
   13        9.018511   0.000000
 
  0.1250000E+00  0.3750000E+00  0.1250000E+00  0.2343750E-01
    1      -42.864417   1.000000
    2      -42.863171   1.000000
    3      -20.838252   1.000000
    4      -20.837516   1.000000
    5      -20.837372   1.000000
    6       -4.636615   1.000000
    7        0.754856   1.000000
    8        1.459273   1.000000
    9        1.526477   1.000000
   10        5.028495   0.000000
   11        6.599331   0.000000
   12        8.991003   0.000000
   13        9.788017   0.000000
 
  0.2500000E+00  0.2500000E+00  0.2500000E+00  0.1171875E-01
    1      -42.863841   1.000000
    2      -42.863841   1.000000
    3      -20.837890   1.000000
    4      -20.837889   1.000000
    5      -20.837379   1.000000
    6       -4.624170   1.000000
    7        1.092352   1.000000
    8        1.092353   1.000000
    9        1.234395   1.000000
   10        6.653125   0.000000
   11        6.939083   0.000000
   12        7.964338   0.000000
   13        7.964338   0.000000
