 vasp.5.4.4.18Apr17-6-g9f103f2a35 (build Jun 23 2019 17:35:09) complex          
  
 executed on             LinuxIFC date 2020.01.14  23:25:09
 running on   28 total cores
 distrk:  each k-point on    7 cores,    4 groups
 distr:  one band on NCORES_PER_BAND=   7 cores,    1 groups


--------------------------------------------------------------------------------------------------------


 INCAR:
 POTCAR:    PAW_PBE Li_sv 10Sep2004               
 POTCAR:    PAW_PBE Na_pv 19Sep2006               
 POTCAR:    PAW_PBE Sb 06Sep2000                  

 ----------------------------------------------------------------------------- 
|                                                                             |
|           W    W    AA    RRRRR   N    N  II  N    N   GGGG   !!!           |
|           W    W   A  A   R    R  NN   N  II  NN   N  G    G  !!!           |
|           W    W  A    A  R    R  N N  N  II  N N  N  G       !!!           |
|           W WW W  AAAAAA  RRRRR   N  N N  II  N  N N  G  GGG   !            |
|           WW  WW  A    A  R   R   N   NN  II  N   NN  G    G                |
|           W    W  A    A  R    R  N    N  II  N    N   GGGG   !!!           |
|                                                                             |
|      You have enabled k-point parallelism (KPAR>1).                         |
|      This developmental code was originally  written by Paul Kent at ORNL,  |
|      and carefully double checked in Vienna.                                |
|      GW as well as linear response parallelism added by Martijn Marsman     |
|      and Georg Kresse.                                                      |
|      Carefully verify results versus KPAR=1.                                |
|      Report problems to Paul Kent and Vienna.                               |
|                                                                             |
 ----------------------------------------------------------------------------- 

 POTCAR:    PAW_PBE Li_sv 10Sep2004               
   VRHFIN =Li: 1s2s2p                                                           
   LEXCH  = PE                                                                  
   EATOM  =   202.7858 eV,   14.9043 Ry                                         
                                                                                
   TITEL  = PAW_PBE Li_sv 10Sep2004                                             
   LULTRA =        F    use ultrasoft PP ?                                      
   IUNSCR =        0    unscreen: 0-lin 1-nonlin 2-no                           
   RPACOR =    0.000    partial core radius                                     
   POMASS =    7.010; ZVAL   =    3.000    mass and valenz                      
   RCORE  =    1.700    outmost cutoff radius                                   
   RWIGS  =    2.050; RWIGS  =    1.085    wigner-seitz radius (au A)           
   ENMAX  =  499.034; ENMIN  =  374.276 eV                                      
   ICORE  =        2    local potential                                         
   LCOR   =        T    correct aug charges                                     
   LPAW   =        T    paw PP                                                  
   EAUG   =  628.945                                                            
   RMAX   =    1.732    core radius for proj-oper                               
   RAUG   =    1.300    factor for augmentation sphere                          
   RDEP   =    1.728    radius for radial grids                                 
   RDEPT  =    1.329    core radius for aug-charge                              
                                                                                
   Atomic configuration                                                         
    4 entries                                                                   
     n  l   j            E        occ.                                          
     1  0  0.50       -51.8549   2.0000                                         
     2  0  0.50        -2.8742   1.0000                                         
     2  1  0.50        -1.3606   0.0000                                         
     3  2  1.50        -1.3606   0.0000                                         
   Description                                                                  
     l       E           TYP  RCUT    TYP  RCUT                                 
     0    -51.8548813     23  1.400                                             
     0     -2.8742052     23  1.700                                             
     1     -1.3605826     23  1.400                                             
     2     -1.3605826     23  1.400                                             
  local pseudopotential read in
  atomic valenz-charges read in
  non local Contribution for L=           0  read in
    real space projection operators read in
  non local Contribution for L=           0  read in
    real space projection operators read in
  non local Contribution for L=           1  read in
    real space projection operators read in
    PAW grid and wavefunctions read in
 
   number of l-projection  operators is LMAX  =           3
   number of lm-projection operators is LMMAX =           5
 
 POTCAR:    PAW_PBE Na_pv 19Sep2006               
   VRHFIN =Na: p6s1                                                             
   LEXCH  = PE                                                                  
   EATOM  =   766.0439 eV,   56.3026 Ry                                         
                                                                                
   TITEL  = PAW_PBE Na_pv 19Sep2006                                             
   LULTRA =        F    use ultrasoft PP ?                                      
   IUNSCR =        1    unscreen: 0-lin 1-nonlin 2-no                           
   RPACOR =    1.800    partial core radius                                     
   POMASS =   22.990; ZVAL   =    7.000    mass and valenz                      
   RCORE  =    2.200    outmost cutoff radius                                   
   RWIGS  =    2.200; RWIGS  =    1.164    wigner-seitz radius (au A)           
   ENMAX  =  259.561; ENMIN  =  194.671 eV                                      
   ICORE  =        2    local potential                                         
   LCOR   =        T    correct aug charges                                     
   LPAW   =        T    paw PP                                                  
   EAUG   =  368.056                                                            
   DEXC   =    0.000                                                            
   RMAX   =    2.245    core radius for proj-oper                               
   RAUG   =    1.300    factor for augmentation sphere                          
   RDEP   =    2.259    radius for radial grids                                 
   RDEPT  =    1.738    core radius for aug-charge                              
                                                                                
   Atomic configuration                                                         
    5 entries                                                                   
     n  l   j            E        occ.                                          
     1  0  0.50     -1033.6933   2.0000                                         
     2  0  0.50       -56.7526   2.0000                                         
     2  1  1.50       -28.6721   6.0000                                         
     3  0  0.50        -2.7440   1.0000                                         
     3  2  1.50        -1.3606   0.0000                                         
   Description                                                                  
     l       E           TYP  RCUT    TYP  RCUT                                 
     1    -28.6720912     23  2.000                                             
     1      6.8029130     23  2.000                                             
     0     -2.7439560     23  2.200                                             
     0     34.0145650     23  2.200                                             
     2     -1.3605826     23  2.200                                             
  local pseudopotential read in
  partial core-charges read in
  partial kinetic energy density read in
  atomic valenz-charges read in
  non local Contribution for L=           1  read in
    real space projection operators read in
  non local Contribution for L=           1  read in
    real space projection operators read in
  non local Contribution for L=           0  read in
    real space projection operators read in
  non local Contribution for L=           0  read in
    real space projection operators read in
    PAW grid and wavefunctions read in
 
   number of l-projection  operators is LMAX  =           4
   number of lm-projection operators is LMMAX =           8
 
 POTCAR:    PAW_PBE Sb 06Sep2000                  
   VRHFIN =Sb: s2p3                                                             
   LEXCH  = PE                                                                  
   EATOM  =   149.9515 eV,   11.0211 Ry                                         
                                                                                
   TITEL  = PAW_PBE Sb 06Sep2000                                                
   LULTRA =        F    use ultrasoft PP ?                                      
   IUNSCR =        1    unscreen: 0-lin 1-nonlin 2-no                           
   RPACOR =    2.200    partial core radius                                     
   POMASS =  121.750; ZVAL   =    5.000    mass and valenz                      
   RCORE  =    2.300    outmost cutoff radius                                   
   RWIGS  =    2.980; RWIGS  =    1.577    wigner-seitz radius (au A)           
   ENMAX  =  172.069; ENMIN  =  129.052 eV                                      
   ICORE  =        3    local potential                                         
   LCOR   =        T    correct aug charges                                     
   LPAW   =        T    paw PP                                                  
   EAUG   =  380.513                                                            
   DEXC   =    0.000                                                            
   RMAX   =    2.346    core radius for proj-oper                               
   RAUG   =    1.300    factor for augmentation sphere                          
   RDEP   =    2.360    radius for radial grids                                 
   RDEPT  =    2.192    core radius for aug-charge                              
                                                                                
   Atomic configuration                                                         
   13 entries                                                                   
     n  l   j            E        occ.                                          
     1  0  0.50    -30298.2797   2.0000                                         
     2  0  0.50     -4610.2252   2.0000                                         
     2  1  1.50     -4138.3407   6.0000                                         
     3  0  0.50      -903.8815   2.0000                                         
     3  1  1.50      -750.1337   6.0000                                         
     3  2  2.50      -515.7092  10.0000                                         
     4  0  0.50      -148.8034   2.0000                                         
     4  1  1.50      -101.7581   6.0000                                         
     4  2  2.50       -33.5048  10.0000                                         
     5  0  0.50       -12.8298   2.0000                                         
     5  1  0.50        -4.8276   3.0000                                         
     5  2  1.50        -4.0817   0.0000                                         
     4  3  2.50        -4.0817   0.0000                                         
   Description                                                                  
     l       E           TYP  RCUT    TYP  RCUT                                 
     0    -12.8297861     23  2.300                                             
     0     13.6058260     23  2.300                                             
     1     -4.8275512     23  2.300                                             
     1     -0.7245443     23  2.300                                             
     2     -4.0817478     23  2.300                                             
     3     -1.3605826     23  2.300                                             
  local pseudopotential read in
  partial core-charges read in
  partial kinetic energy density read in
  atomic valenz-charges read in
  non local Contribution for L=           0  read in
    real space projection operators read in
  non local Contribution for L=           0  read in
    real space projection operators read in
  non local Contribution for L=           1  read in
    real space projection operators read in
  non local Contribution for L=           1  read in
    real space projection operators read in
  non local Contribution for L=           2  read in
    real space projection operators read in
    PAW grid and wavefunctions read in
 
   number of l-projection  operators is LMAX  =           5
   number of lm-projection operators is LMMAX =          13
 
  PAW_PBE Li_sv 10Sep2004               :
 energy of atom  1       EATOM= -202.7858
 kinetic energy error for atom=    0.0130 (will be added to EATOM!!)
  PAW_PBE Na_pv 19Sep2006               :
 energy of atom  2       EATOM= -766.0439
 kinetic energy error for atom=    0.0019 (will be added to EATOM!!)
  PAW_PBE Sb 06Sep2000                  :
 energy of atom  3       EATOM= -149.9515
 kinetic energy error for atom=    0.0005 (will be added to EATOM!!)
 
 
 POSCAR: Na Sb Li                                
  positions in direct lattice
  No initial velocities read in
 exchange correlation table for  LEXCH =        8
   RHO(1)=    0.500       N(1)  =     2000
   RHO(2)=  100.500       N(2)  =     4000
 


--------------------------------------------------------------------------------------------------------


 ion  position               nearest neighbor table
   1  0.750  0.500  0.250-   4 2.93   4 2.93   4 2.93   4 2.93
   2  0.250  0.500  0.750-   4 2.93   4 2.93   4 2.93   4 2.93
   3  0.500  0.000  0.500-
   4  0.000  0.000  0.000-   1 2.93   2 2.93   1 2.93   2 2.93   1 2.93   2 2.93   1 2.93   2 2.93

 
  LATTYP: Found a face centered cubic cell.
 ALAT       =     6.7562160000
  
  Lattice vectors:
  
 A1 = (  -3.3781080000,   0.0000000000,  -3.3781080000)
 A2 = (   0.0000000000,  -3.3781080000,  -3.3781080000)
 A3 = (  -3.3781080000,  -3.3781080000,   0.0000000000)


Analysis of symmetry for initial positions (statically):
=====================================================================
 Subroutine PRICEL returns:
 Original cell was already a primitive cell.
 

 Routine SETGRP: Setting up the symmetry group for a 
 face centered cubic supercell.


 Subroutine GETGRP returns: Found 48 space group operations
 (whereof 48 operations were pure point group operations)
 out of a pool of 48 trial point group operations.


The static configuration has the point symmetry O_h .


Analysis of symmetry for dynamics (positions and initial velocities):
=====================================================================
 Subroutine PRICEL returns:
 Original cell was already a primitive cell.
 

 Routine SETGRP: Setting up the symmetry group for a 
 face centered cubic supercell.


 Subroutine GETGRP returns: Found 48 space group operations
 (whereof 48 operations were pure point group operations)
 out of a pool of 48 trial point group operations.


The dynamic configuration has the point symmetry O_h .


 Subroutine INISYM returns: Found 48 space group operations
 (whereof 48 operations are pure point group operations),
 and found     1 'primitive' translations

 
 
 KPOINTS: KPOINTS                                 

Automatic generation of k-mesh.
Space group operators:
 irot       det(A)        alpha          n_x          n_y          n_z        tau_x        tau_y        tau_z
    1     1.000000     0.000000     1.000000     0.000000     0.000000     0.000000     0.000000     0.000000
    2    -1.000000     0.000000     1.000000     0.000000     0.000000     0.000000     0.000000     0.000000
    3     1.000000   120.000000     0.577350     0.577350     0.577350     0.000000     0.000000     0.000000
    4    -1.000000   120.000000     0.577350     0.577350     0.577350     0.000000     0.000000     0.000000
    5     1.000000   120.000000    -0.577350    -0.577350    -0.577350     0.000000     0.000000     0.000000
    6    -1.000000   120.000000    -0.577350    -0.577350    -0.577350     0.000000     0.000000     0.000000
    7     1.000000    90.000000     0.000000     0.000000     1.000000     0.000000     0.000000     0.000000
    8    -1.000000    90.000000     0.000000     0.000000     1.000000     0.000000     0.000000     0.000000
    9     1.000000   180.000000     0.707107     0.000000     0.707107     0.000000     0.000000     0.000000
   10    -1.000000   180.000000     0.707107     0.000000     0.707107     0.000000     0.000000     0.000000
   11     1.000000    90.000000    -1.000000     0.000000     0.000000     0.000000     0.000000     0.000000
   12    -1.000000    90.000000    -1.000000     0.000000     0.000000     0.000000     0.000000     0.000000
   13     1.000000   179.999999     0.000000     0.000000     1.000000     0.000000     0.000000     0.000000
   14    -1.000000   179.999999     0.000000     0.000000     1.000000     0.000000     0.000000     0.000000
   15     1.000000   120.000000    -0.577350     0.577350    -0.577350     0.000000     0.000000     0.000000
   16    -1.000000   120.000000    -0.577350     0.577350    -0.577350     0.000000     0.000000     0.000000
   17     1.000000   120.000000    -0.577350     0.577350     0.577350     0.000000     0.000000     0.000000
   18    -1.000000   120.000000    -0.577350     0.577350     0.577350     0.000000     0.000000     0.000000
   19     1.000000    90.000000     0.000000     0.000000    -1.000000     0.000000     0.000000     0.000000
   20    -1.000000    90.000000     0.000000     0.000000    -1.000000     0.000000     0.000000     0.000000
   21     1.000000    90.000000     0.000000     1.000000     0.000000     0.000000     0.000000     0.000000
   22    -1.000000    90.000000     0.000000     1.000000     0.000000     0.000000     0.000000     0.000000
   23     1.000000   180.000000     0.000000     0.707107     0.707107     0.000000     0.000000     0.000000
   24    -1.000000   180.000000     0.000000     0.707107     0.707107     0.000000     0.000000     0.000000
   25     1.000000   120.000000     0.577350    -0.577350    -0.577350     0.000000     0.000000     0.000000
   26    -1.000000   120.000000     0.577350    -0.577350    -0.577350     0.000000     0.000000     0.000000
   27     1.000000   120.000000     0.577350     0.577350    -0.577350     0.000000     0.000000     0.000000
   28    -1.000000   120.000000     0.577350     0.577350    -0.577350     0.000000     0.000000     0.000000
   29     1.000000   180.000000     0.000000     1.000000     0.000000     0.000000     0.000000     0.000000
   30    -1.000000   180.000000     0.000000     1.000000     0.000000     0.000000     0.000000     0.000000
   31     1.000000    90.000000     1.000000     0.000000     0.000000     0.000000     0.000000     0.000000
   32    -1.000000    90.000000     1.000000     0.000000     0.000000     0.000000     0.000000     0.000000
   33     1.000000   180.000000     0.707107     0.707107     0.000000     0.000000     0.000000     0.000000
   34    -1.000000   180.000000     0.707107     0.707107     0.000000     0.000000     0.000000     0.000000
   35     1.000000    90.000000     0.000000    -1.000000     0.000000     0.000000     0.000000     0.000000
   36    -1.000000    90.000000     0.000000    -1.000000     0.000000     0.000000     0.000000     0.000000
   37     1.000000   120.000000     0.577350    -0.577350     0.577350     0.000000     0.000000     0.000000
   38    -1.000000   120.000000     0.577350    -0.577350     0.577350     0.000000     0.000000     0.000000
   39     1.000000   180.000000     1.000000     0.000000     0.000000     0.000000     0.000000     0.000000
   40    -1.000000   180.000000     1.000000     0.000000     0.000000     0.000000     0.000000     0.000000
   41     1.000000   120.000000    -0.577350    -0.577350     0.577350     0.000000     0.000000     0.000000
   42    -1.000000   120.000000    -0.577350    -0.577350     0.577350     0.000000     0.000000     0.000000
   43     1.000000   180.000000     0.707107     0.000000    -0.707107     0.000000     0.000000     0.000000
   44    -1.000000   180.000000     0.707107     0.000000    -0.707107     0.000000     0.000000     0.000000
   45     1.000000   180.000000     0.707107    -0.707107     0.000000     0.000000     0.000000     0.000000
   46    -1.000000   180.000000     0.707107    -0.707107     0.000000     0.000000     0.000000     0.000000
   47     1.000000   180.000000     0.000000    -0.707107     0.707107     0.000000     0.000000     0.000000
   48    -1.000000   180.000000     0.000000    -0.707107     0.707107     0.000000     0.000000     0.000000
 
 Subroutine IBZKPT returns following result:
 ===========================================
 
 Found     29 irreducible k-points:
 
 Following reciprocal coordinates:
            Coordinates               Weight
  0.000000  0.000000  0.000000      1.000000
  0.125000  0.000000  0.000000      8.000000
  0.250000  0.000000  0.000000      8.000000
  0.375000  0.000000  0.000000      8.000000
  0.500000  0.000000  0.000000      4.000000
  0.000000  0.125000  0.000000      6.000000
  0.125000  0.125000  0.000000     24.000000
  0.250000  0.125000  0.000000     24.000000
  0.375000  0.125000  0.000000     24.000000
  0.500000  0.125000  0.000000     24.000000
 -0.375000  0.125000  0.000000     24.000000
 -0.250000  0.125000  0.000000     12.000000
  0.000000  0.250000  0.000000      6.000000
  0.125000  0.250000  0.000000     24.000000
  0.250000  0.250000  0.000000     24.000000
  0.375000  0.250000  0.000000     24.000000
  0.500000  0.250000  0.000000     12.000000
  0.000000  0.375000  0.000000      6.000000
  0.125000  0.375000  0.000000     24.000000
  0.250000  0.375000  0.000000     12.000000
  0.000000  0.500000  0.000000      3.000000
  0.125000  0.125000  0.125000     24.000000
  0.250000  0.125000  0.125000     48.000000
  0.375000  0.125000  0.125000     24.000000
  0.125000  0.250000  0.125000     24.000000
  0.250000  0.250000  0.125000     48.000000
  0.375000  0.250000  0.125000     24.000000
  0.125000  0.375000  0.125000     12.000000
  0.250000  0.250000  0.250000      6.000000
 
 Following cartesian coordinates:
            Coordinates               Weight
  0.000000  0.000000  0.000000      1.000000
  0.018501 -0.018501 -0.018501      8.000000
  0.037003 -0.037003 -0.037003      8.000000
  0.055504 -0.055504 -0.055504      8.000000
  0.074006 -0.074006 -0.074006      4.000000
  0.000000  0.000000 -0.037003      6.000000
  0.018501 -0.018501 -0.055504     24.000000
  0.037003 -0.037003 -0.074006     24.000000
  0.055504 -0.055504 -0.092507     24.000000
  0.074006 -0.074006 -0.111009     24.000000
 -0.055504  0.055504  0.018501     24.000000
 -0.037003  0.037003  0.000000     12.000000
  0.000000  0.000000 -0.074006      6.000000
  0.018501 -0.018501 -0.092507     24.000000
  0.037003 -0.037003 -0.111009     24.000000
  0.055504 -0.055504 -0.129510     24.000000
  0.074006 -0.074006 -0.148012     12.000000
  0.000000  0.000000 -0.111009      6.000000
  0.018501 -0.018501 -0.129510     24.000000
  0.037003 -0.037003 -0.148012     12.000000
  0.000000  0.000000 -0.148012      3.000000
  0.037003  0.000000 -0.074006     24.000000
  0.055504 -0.018501 -0.092507     48.000000
  0.074006 -0.037003 -0.111009     24.000000
  0.037003  0.000000 -0.111009     24.000000
  0.055504 -0.018501 -0.129510     48.000000
  0.074006 -0.037003 -0.148012     24.000000
  0.037003  0.000000 -0.148012     12.000000
  0.074006  0.000000 -0.148012      6.000000
 


--------------------------------------------------------------------------------------------------------




 Dimension of arrays:
   k-points           NKPTS =     29   k-points in BZ     NKDIM =     29   number of bands    NBANDS=     13
   number of dos      NEDOS =    301   number of ions     NIONS =      4
   non local maximal  LDIM  =      5   non local SUM 2l+1 LMDIM =     13
   total plane-waves  NPLWV =  46656
   max r-space proj   IRMAX =      1   max aug-charges    IRDMAX=  33779
   dimension x,y,z NGX =    36 NGY =   36 NGZ =   36
   dimension x,y,z NGXF=    72 NGYF=   72 NGZF=   72
   support grid    NGXF=    72 NGYF=   72 NGZF=   72
   ions per type =               2   1   1
   NGX,Y,Z   is equivalent  to a cutoff of  12.53, 12.53, 12.53 a.u.
   NGXF,Y,Z  is equivalent  to a cutoff of  25.06, 25.06, 25.06 a.u.

 SYSTEM =  unknown system                          
 POSCAR =  Na Sb Li                                

 Startparameter for this run:
   NWRITE =      2    write-flag & timer
   PREC   = acc       normal or accurate (medium, high low for compatibility)
   ISTART =      0    job   : 0-new  1-cont  2-samecut
   ICHARG =      2    charge: 1-file 2-atom 10-const
   ISPIN  =      1    spin polarized calculation?
   LNONCOLLINEAR =      F non collinear calculations
   LSORBIT =      F    spin-orbit coupling
   INIWAV =      1    electr: 0-lowe 1-rand  2-diag
   LASPH  =      F    aspherical Exc in radial PAW
   METAGGA=      F    non-selfconsistent MetaGGA calc.

 Electronic Relaxation 1
   ENCUT  =  520.0 eV  38.22 Ry    6.18 a.u.   8.88  8.88  8.88*2*pi/ulx,y,z
   ENINI  =  520.0     initial cutoff
   ENAUG  =  628.9 eV  augmentation charge cutoff
   NELM   =     60;   NELMIN=  5; NELMDL= -5     # of ELM steps 
   EDIFF  = 0.1E-04   stopping-criterion for ELM
   LREAL  =      F    real-space projection
   NLSPLINE    = F    spline interpolate recip. space projectors
   LCOMPAT=      F    compatible to vasp.4.4
   GGA_COMPAT  = T    GGA compatible to vasp.4.4-vasp.4.6
   LMAXPAW     = -100 max onsite density
   LMAXMIX     =    2 max onsite mixed and CHGCAR
   VOSKOWN=      0    Vosko Wilk Nusair interpolation
   ROPT   =    0.00000   0.00000   0.00000
 Ionic relaxation
   EDIFFG = -.1E-02   stopping-criterion for IOM
   NSW    =    100    number of steps for IOM
   NBLOCK =      1;   KBLOCK =    100    inner block; outer block 
   IBRION =      2    ionic relax: 0-MD 1-quasi-New 2-CG
   NFREE  =      1    steps in history (QN), initial steepest desc. (CG)
   ISIF   =      3    stress and relaxation
   IWAVPR =     11    prediction:  0-non 1-charg 2-wave 3-comb
   ISYM   =      2    0-nonsym 1-usesym 2-fastsym
   LCORR  =      T    Harris-Foulkes like correction to forces

   POTIM  = 0.5000    time-step for ionic-motion
   TEIN   =    0.0    initial temperature
   TEBEG  =    0.0;   TEEND  =   0.0 temperature during run
   SMASS  =  -3.00    Nose mass-parameter (am)
   estimated Nose-frequenzy (Omega)   =  0.10E-29 period in steps =****** mass=  -0.522E-27a.u.
   SCALEE = 1.0000    scale energy and forces
   NPACO  =    256;   APACO  = 16.0  distance and # of slots for P.C.
   PSTRESS=    0.0 pullay stress

  Mass of Ions in am
   POMASS =   7.01 22.99121.75
  Ionic Valenz
   ZVAL   =   3.00  7.00  5.00
  Atomic Wigner-Seitz radii
   RWIGS  =  -1.00 -1.00 -1.00
  virtual crystal weights 
   VCA    =   1.00  1.00  1.00
   NELECT =      18.0000    total number of electrons
   NUPDOWN=      -1.0000    fix difference up-down

 DOS related values:
   EMIN   =  10.00;   EMAX   =-10.00  energy-range for DOS
   EFERMI =   0.00
   ISMEAR =     0;   SIGMA  =   0.05  broadening in eV -4-tet -1-fermi 0-gaus

 Electronic relaxation 2 (details)
   IALGO  =     38    algorithm
   LDIAG  =      T    sub-space diagonalisation (order eigenvalues)
   LSUBROT=      F    optimize rotation matrix (better conditioning)
   TURBO    =      0    0=normal 1=particle mesh
   IRESTART =      0    0=no restart 2=restart with 2 vectors
   NREBOOT  =      0    no. of reboots
   NMIN     =      0    reboot dimension
   EREF     =   0.00    reference energy to select bands
   IMIX   =      4    mixing-type and parameters
     AMIX     =   0.40;   BMIX     =  1.00
     AMIX_MAG =   1.60;   BMIX_MAG =  1.00
     AMIN     =   0.10
     WC   =   100.;   INIMIX=   1;  MIXPRE=   1;  MAXMIX= -45

 Intra band minimization:
   WEIMIN = 0.0010     energy-eigenvalue tresh-hold
   EBREAK =  0.19E-06  absolut break condition
   DEPER  =   0.30     relativ break condition  

   TIME   =   0.40     timestep for ELM

  volume/ion in A,a.u.               =      19.27       130.07
  Fermi-wavevector in a.u.,A,eV,Ry     =   1.008050  1.904939 13.825766  1.016165
  Thomas-Fermi vector in A             =   2.140893
 
 Write flags
   LWAVE        =      F    write WAVECAR
   LDOWNSAMPLE  =      F    k-point downsampling of WAVECAR
   LCHARG       =      F    write CHGCAR
   LVTOT        =      F    write LOCPOT, total local potential
   LVHAR        =      F    write LOCPOT, Hartree potential only
   LELF         =      F    write electronic localiz. function (ELF)
   LORBIT       =      0    0 simple, 1 ext, 2 COOP (PROOUT), +10 PAW based schemes


 Dipole corrections
   LMONO  =      F    monopole corrections only (constant potential shift)
   LDIPOL =      F    correct potential (dipole corrections)
   IDIPOL =      0    1-x, 2-y, 3-z, 4-all directions 
   EPSILON=  1.0000000 bulk dielectric constant

 Exchange correlation treatment:
   GGA     =    PE    GGA type
   LEXCH   =     8    internal setting for exchange type
   VOSKOWN=      0    Vosko Wilk Nusair interpolation
   LHFCALC =     F    Hartree Fock is set to
   LHFONE  =     F    Hartree Fock one center treatment
   AEXX    =    0.0000 exact exchange contribution

 Linear response parameters
   LEPSILON=     F    determine dielectric tensor
   LRPA    =     F    only Hartree local field effects (RPA)
   LNABLA  =     F    use nabla operator in PAW spheres
   LVEL    =     F    velocity operator in full k-point grid
   LINTERFAST=   F  fast interpolation
   KINTER  =     0    interpolate to denser k-point grid
   CSHIFT  =0.1000    complex shift for real part using Kramers Kronig
   OMEGAMAX=  -1.0    maximum frequency
   DEG_THRESHOLD= 0.2000000E-02 threshold for treating states as degnerate
   RTIME   =   -0.100 relaxation time in fs
  (WPLASMAI=    0.000 imaginary part of plasma frequency in eV, 0.658/RTIME)
   DFIELD  = 0.0000000 0.0000000 0.0000000 field for delta impulse in time
 
 Orbital magnetization related:
   ORBITALMAG=     F  switch on orbital magnetization
   LCHIMAG   =     F  perturbation theory with respect to B field
   DQ        =  0.001000  dq finite difference perturbation B field
   LLRAUG    =     F  two centre corrections for induced B field



--------------------------------------------------------------------------------------------------------


 conjugate gradient relaxation of ions
 charge density and potential will be updated during run
 non-spin polarized calculation
 Variant of blocked Davidson
 Davidson routine will perform the subspace rotation
 perform sub-space diagonalisation
    after iterative eigenvector-optimisation
 modified Broyden-mixing scheme, WC =      100.0
 initial mixing is a Kerker type mixing with AMIX =  0.4000 and BMIX =      1.0000
 Hartree-type preconditioning will be used
 using additional bands            4
 reciprocal scheme for non local part
 use partial core corrections
 calculate Harris-corrections to forces 
   (improved forces if not selfconsistent)
 use gradient corrections 
 use of overlap-Matrix (Vanderbilt PP)
 Gauss-broadening in eV      SIGMA  =   0.05


--------------------------------------------------------------------------------------------------------


  energy-cutoff  :      520.00
  volume of cell :       77.10
      direct lattice vectors                 reciprocal lattice vectors
     3.378108000 -3.378108000  0.000000000     0.148011846 -0.148011846 -0.148011846
    -3.378108000  0.000000000 -3.378108000     0.000000000  0.000000000 -0.296023691
     3.378108000  3.378108000  0.000000000     0.148011846  0.148011846 -0.148011846

  length of vectors
     4.777366149  4.777366149  4.777366149     0.256364037  0.296023691  0.256364037


 
 k-points in units of 2pi/SCALE and weight: KPOINTS                                 
   0.00000000  0.00000000  0.00000000       0.002
   0.01850148 -0.01850148 -0.01850148       0.016
   0.03700296 -0.03700296 -0.03700296       0.016
   0.05550444 -0.05550444 -0.05550444       0.016
   0.07400592 -0.07400592 -0.07400592       0.008
   0.00000000  0.00000000 -0.03700296       0.012
   0.01850148 -0.01850148 -0.05550444       0.047
   0.03700296 -0.03700296 -0.07400592       0.047
   0.05550444 -0.05550444 -0.09250740       0.047
   0.07400592 -0.07400592 -0.11100888       0.047
  -0.05550444  0.05550444  0.01850148       0.047
  -0.03700296  0.03700296  0.00000000       0.023
   0.00000000  0.00000000 -0.07400592       0.012
   0.01850148 -0.01850148 -0.09250740       0.047
   0.03700296 -0.03700296 -0.11100888       0.047
   0.05550444 -0.05550444 -0.12951036       0.047
   0.07400592 -0.07400592 -0.14801185       0.023
   0.00000000  0.00000000 -0.11100888       0.012
   0.01850148 -0.01850148 -0.12951036       0.047
   0.03700296 -0.03700296 -0.14801185       0.023
   0.00000000  0.00000000 -0.14801185       0.006
   0.03700296  0.00000000 -0.07400592       0.047
   0.05550444 -0.01850148 -0.09250740       0.094
   0.07400592 -0.03700296 -0.11100888       0.047
   0.03700296  0.00000000 -0.11100888       0.047
   0.05550444 -0.01850148 -0.12951036       0.094
   0.07400592 -0.03700296 -0.14801185       0.047
   0.03700296  0.00000000 -0.14801185       0.023
   0.07400592  0.00000000 -0.14801185       0.012
 
 k-points in reciprocal lattice and weights: KPOINTS                                 
   0.00000000  0.00000000  0.00000000       0.002
   0.12500000  0.00000000  0.00000000       0.016
   0.25000000  0.00000000  0.00000000       0.016
   0.37500000  0.00000000  0.00000000       0.016
   0.50000000  0.00000000  0.00000000       0.008
   0.00000000  0.12500000  0.00000000       0.012
   0.12500000  0.12500000  0.00000000       0.047
   0.25000000  0.12500000  0.00000000       0.047
   0.37500000  0.12500000  0.00000000       0.047
   0.50000000  0.12500000  0.00000000       0.047
  -0.37500000  0.12500000  0.00000000       0.047
  -0.25000000  0.12500000  0.00000000       0.023
   0.00000000  0.25000000  0.00000000       0.012
   0.12500000  0.25000000  0.00000000       0.047
   0.25000000  0.25000000  0.00000000       0.047
   0.37500000  0.25000000  0.00000000       0.047
   0.50000000  0.25000000  0.00000000       0.023
   0.00000000  0.37500000  0.00000000       0.012
   0.12500000  0.37500000  0.00000000       0.047
   0.25000000  0.37500000  0.00000000       0.023
   0.00000000  0.50000000  0.00000000       0.006
   0.12500000  0.12500000  0.12500000       0.047
   0.25000000  0.12500000  0.12500000       0.094
   0.37500000  0.12500000  0.12500000       0.047
   0.12500000  0.25000000  0.12500000       0.047
   0.25000000  0.25000000  0.12500000       0.094
   0.37500000  0.25000000  0.12500000       0.047
   0.12500000  0.37500000  0.12500000       0.023
   0.25000000  0.25000000  0.25000000       0.012
 
 position of ions in fractional coordinates (direct lattice) 
   0.74999822  0.49999882  0.24999941
   0.24999941  0.49999882  0.74999822
   0.50000030  0.00000000  0.50000030
   0.00000000  0.00000000  0.00000000
 
 position of ions in cartesian coordinates  (Angst):
   1.68905000 -1.68905000 -1.68905000
   1.68905000  1.68905000 -1.68905000
   3.37811000  0.00000000  0.00000000
   0.00000000  0.00000000  0.00000000
 


--------------------------------------------------------------------------------------------------------


 k-point  1 :   0.0000 0.0000 0.0000  plane waves:    2085
 k-point  2 :   0.1250 0.0000 0.0000  plane waves:    2073
 k-point  3 :   0.2500 0.0000 0.0000  plane waves:    2067
 k-point  4 :   0.3750 0.0000 0.0000  plane waves:    2072
 k-point  5 :   0.5000 0.0000 0.0000  plane waves:    2060
 k-point  6 :   0.0000 0.1250 0.0000  plane waves:    2061
 k-point  7 :   0.1250 0.1250 0.0000  plane waves:    2064
 k-point  8 :   0.2500 0.1250 0.0000  plane waves:    2072
 k-point  9 :   0.3750 0.1250 0.0000  plane waves:    2074
 k-point 10 :   0.5000 0.1250 0.0000  plane waves:    2068
 k-point 11 :  -0.3750 0.1250 0.0000  plane waves:    2070
 k-point 12 :  -0.2500 0.1250 0.0000  plane waves:    2067
 k-point 13 :   0.0000 0.2500 0.0000  plane waves:    2045
 k-point 14 :   0.1250 0.2500 0.0000  plane waves:    2075
 k-point 15 :   0.2500 0.2500 0.0000  plane waves:    2081
 k-point 16 :   0.3750 0.2500 0.0000  plane waves:    2080
 k-point 17 :   0.5000 0.2500 0.0000  plane waves:    2085
 k-point 18 :   0.0000 0.3750 0.0000  plane waves:    2072
 k-point 19 :   0.1250 0.3750 0.0000  plane waves:    2083
 k-point 20 :   0.2500 0.3750 0.0000  plane waves:    2085
 k-point 21 :   0.0000 0.5000 0.0000  plane waves:    2068
 k-point 22 :   0.1250 0.1250 0.1250  plane waves:    2056
 k-point 23 :   0.2500 0.1250 0.1250  plane waves:    2075
 k-point 24 :   0.3750 0.1250 0.1250  plane waves:    2062
 k-point 25 :   0.1250 0.2500 0.1250  plane waves:    2085
 k-point 26 :   0.2500 0.2500 0.1250  plane waves:    2085
 k-point 27 :   0.3750 0.2500 0.1250  plane waves:    2074
 k-point 28 :   0.1250 0.3750 0.1250  plane waves:    2082
 k-point 29 :   0.2500 0.2500 0.2500  plane waves:    2120

 maximum and minimum number of plane-waves per node :       309      283

 maximum number of plane-waves:      2120
 maximum index in each direction: 
   IXMAX=    9   IYMAX=    8   IZMAX=    8
   IXMIN=   -9   IYMIN=   -9   IZMIN=   -9


 parallel 3D FFT for wavefunctions:
    minimum data exchange during FFTs selected (reduces bandwidth)
 parallel 3D FFT for charge:
    minimum data exchange during FFTs selected (reduces bandwidth)


 total amount of memory used by VASP MPI-rank0    40894. kBytes
=======================================================================

   base      :      30000. kBytes
   nonl-proj :       2770. kBytes
   fftplans  :       2164. kBytes
   grid      :       4040. kBytes
   one-center:          8. kBytes
   wavefun   :       1912. kBytes
 
     INWAV:  cpu time    0.0000: real time    0.0000
 Broyden mixing: mesh for mixing (old mesh)
   NGX = 17   NGY = 17   NGZ = 17
  (NGX  = 72   NGY  = 72   NGZ  = 72)
  gives a total of   4913 points

 initial charge density was supplied:
 charge density of overlapping atoms calculated
 number of electron      18.0000000 magnetization 
 keeping initial charge density in first step


--------------------------------------------------------------------------------------------------------


 Maximum index for augmentation-charges         5418 (set IRDMAX)


--------------------------------------------------------------------------------------------------------


 First call to EWALD:  gamma=   0.416
 Maximum number of real-space cells 3x 3x 3
 Maximum number of reciprocal cells 3x 3x 3

    FEWALD:  cpu time    0.0015: real time    0.0015


--------------------------------------- Iteration      1(   1)  ---------------------------------------


    POTLOK:  cpu time    0.0334: real time    0.0350
    SETDIJ:  cpu time    0.0046: real time    0.0047
     EDDAV:  cpu time    0.0972: real time    0.0975
       DOS:  cpu time    0.0004: real time    0.0004
    --------------------------------------------
      LOOP:  cpu time    0.1356: real time    0.1376

 eigenvalue-minimisations  :   754
 total energy-change (2. order) : 0.9289423E+02  (-0.8748242E+03)
 number of electron      18.0000000 magnetization 
 augmentation part       18.0000000 magnetization 

 Free energy of the ion-electron system (eV)
  ---------------------------------------------------
  alpha Z        PSCENC =        10.96907945
  Ewald energy   TEWEN  =      -674.76340655
  -Hartree energ DENC   =      -323.42246500
  -exchange      EXHF   =         0.00000000
  -V(xc)+E(xc)   XCENC  =         3.58653423
  PAW double counting   =       825.55058042     -890.97831796
  entropy T*S    EENTRO =        -0.00437345
  eigenvalues    EBANDS =      -179.58213156
  atomic energy  EATOM  =      1321.53873213
  Solvation  Ediel_sol  =         0.00000000
  ---------------------------------------------------
  free energy    TOTEN  =        92.89423169 eV

  energy without entropy =       92.89860515  energy(sigma->0) =       92.89641842


--------------------------------------------------------------------------------------------------------




--------------------------------------- Iteration      1(   2)  ---------------------------------------


     EDDAV:  cpu time    0.0929: real time    0.0951
       DOS:  cpu time    0.0003: real time    0.0003
    --------------------------------------------
      LOOP:  cpu time    0.0932: real time    0.0954

 eigenvalue-minimisations  :   804
 total energy-change (2. order) :-0.9342895E+02  (-0.9122867E+02)
 number of electron      18.0000000 magnetization 
 augmentation part       18.0000000 magnetization 

 Free energy of the ion-electron system (eV)
  ---------------------------------------------------
  alpha Z        PSCENC =        10.96907945
  Ewald energy   TEWEN  =      -674.76340655
  -Hartree energ DENC   =      -323.42246500
  -exchange      EXHF   =         0.00000000
  -V(xc)+E(xc)   XCENC  =         3.58653423
  PAW double counting   =       825.55058042     -890.97831796
  entropy T*S    EENTRO =        -0.00046098
  eigenvalues    EBANDS =      -273.01499027
  atomic energy  EATOM  =      1321.53873213
  Solvation  Ediel_sol  =         0.00000000
  ---------------------------------------------------
  free energy    TOTEN  =        -0.53471455 eV

  energy without entropy =       -0.53425357  energy(sigma->0) =       -0.53448406


--------------------------------------------------------------------------------------------------------




--------------------------------------- Iteration      1(   3)  ---------------------------------------


     EDDAV:  cpu time    0.1409: real time    0.1411
       DOS:  cpu time    0.0002: real time    0.0002
    --------------------------------------------
      LOOP:  cpu time    0.1410: real time    0.1413

 eigenvalue-minimisations  :  1418
 total energy-change (2. order) :-0.1068878E+02  (-0.1057808E+02)
 number of electron      18.0000000 magnetization 
 augmentation part       18.0000000 magnetization 

 Free energy of the ion-electron system (eV)
  ---------------------------------------------------
  alpha Z        PSCENC =        10.96907945
  Ewald energy   TEWEN  =      -674.76340655
  -Hartree energ DENC   =      -323.42246500
  -exchange      EXHF   =         0.00000000
  -V(xc)+E(xc)   XCENC  =         3.58653423
  PAW double counting   =       825.55058042     -890.97831796
  entropy T*S    EENTRO =        -0.00000000
  eigenvalues    EBANDS =      -283.70423186
  atomic energy  EATOM  =      1321.53873213
  Solvation  Ediel_sol  =         0.00000000
  ---------------------------------------------------
  free energy    TOTEN  =       -11.22349515 eV

  energy without entropy =      -11.22349515  energy(sigma->0) =      -11.22349515


--------------------------------------------------------------------------------------------------------




--------------------------------------- Iteration      1(   4)  ---------------------------------------


     EDDAV:  cpu time    0.1104: real time    0.1106
       DOS:  cpu time    0.0002: real time    0.0002
    --------------------------------------------
      LOOP:  cpu time    0.1106: real time    0.1108

 eigenvalue-minimisations  :  1031
 total energy-change (2. order) :-0.5008223E+00  (-0.4982453E+00)
 number of electron      18.0000000 magnetization 
 augmentation part       18.0000000 magnetization 

 Free energy of the ion-electron system (eV)
  ---------------------------------------------------
  alpha Z        PSCENC =        10.96907945
  Ewald energy   TEWEN  =      -674.76340655
  -Hartree energ DENC   =      -323.42246500
  -exchange      EXHF   =         0.00000000
  -V(xc)+E(xc)   XCENC  =         3.58653423
  PAW double counting   =       825.55058042     -890.97831796
  entropy T*S    EENTRO =        -0.00000000
  eigenvalues    EBANDS =      -284.20505416
  atomic energy  EATOM  =      1321.53873213
  Solvation  Ediel_sol  =         0.00000000
  ---------------------------------------------------
  free energy    TOTEN  =       -11.72431746 eV

  energy without entropy =      -11.72431746  energy(sigma->0) =      -11.72431746


--------------------------------------------------------------------------------------------------------




--------------------------------------- Iteration      1(   5)  ---------------------------------------


     EDDAV:  cpu time    0.1265: real time    0.1269
       DOS:  cpu time    0.0002: real time    0.0002
    CHARGE:  cpu time    0.0180: real time    0.0180
    MIXING:  cpu time    0.0027: real time    0.0027
    --------------------------------------------
      LOOP:  cpu time    0.1473: real time    0.1478

 eigenvalue-minimisations  :  1188
 total energy-change (2. order) :-0.4666607E-01  (-0.4665933E-01)
 number of electron      18.0000012 magnetization 
 augmentation part        5.5998207 magnetization 

 Broyden mixing:
  rms(total) = 0.30356E+00    rms(broyden)= 0.30324E+00
  rms(prec ) = 0.62642E+00
  weight for this iteration     100.00

 Free energy of the ion-electron system (eV)
  ---------------------------------------------------
  alpha Z        PSCENC =        10.96907945
  Ewald energy   TEWEN  =      -674.76340655
  -Hartree energ DENC   =      -323.42246500
  -exchange      EXHF   =         0.00000000
  -V(xc)+E(xc)   XCENC  =         3.58653423
  PAW double counting   =       825.55058042     -890.97831796
  entropy T*S    EENTRO =        -0.00000000
  eigenvalues    EBANDS =      -284.25172024
  atomic energy  EATOM  =      1321.53873213
  Solvation  Ediel_sol  =         0.00000000
  ---------------------------------------------------
  free energy    TOTEN  =       -11.77098353 eV

  energy without entropy =      -11.77098353  energy(sigma->0) =      -11.77098353


--------------------------------------------------------------------------------------------------------




--------------------------------------- Iteration      1(   6)  ---------------------------------------


    POTLOK:  cpu time    0.0322: real time    0.0325
    SETDIJ:  cpu time    0.0033: real time    0.0033
     EDDAV:  cpu time    0.1048: real time    0.1048
       DOS:  cpu time    0.0002: real time    0.0002
    CHARGE:  cpu time    0.0164: real time    0.0164
    MIXING:  cpu time    0.0024: real time    0.0024
    --------------------------------------------
      LOOP:  cpu time    0.1592: real time    0.1596

 eigenvalue-minimisations  :  1005
 total energy-change (2. order) : 0.1393916E+00  (-0.1535330E-01)
 number of electron      18.0000012 magnetization 
 augmentation part        5.6165065 magnetization 

 Broyden mixing:
  rms(total) = 0.18055E+00    rms(broyden)= 0.18055E+00
  rms(prec ) = 0.34895E+00
  weight for this iteration     100.00

 eigenvalues of (default mixing * dielectric matrix)
  average eigenvalue GAMMA=   2.3521
  2.3521

 Free energy of the ion-electron system (eV)
  ---------------------------------------------------
  alpha Z        PSCENC =        10.96907945
  Ewald energy   TEWEN  =      -674.76340655
  -Hartree energ DENC   =      -320.04761367
  -exchange      EXHF   =         0.00000000
  -V(xc)+E(xc)   XCENC  =         3.62280479
  PAW double counting   =       891.03744384     -956.48106182
  entropy T*S    EENTRO =        -0.00000000
  eigenvalues    EBANDS =      -287.50757014
  atomic energy  EATOM  =      1321.53873213
  Solvation  Ediel_sol  =         0.00000000
  ---------------------------------------------------
  free energy    TOTEN  =       -11.63159197 eV

  energy without entropy =      -11.63159197  energy(sigma->0) =      -11.63159197


--------------------------------------------------------------------------------------------------------




--------------------------------------- Iteration      1(   7)  ---------------------------------------


    POTLOK:  cpu time    0.0306: real time    0.0309
    SETDIJ:  cpu time    0.0027: real time    0.0027
     EDDAV:  cpu time    0.1143: real time    0.1144
       DOS:  cpu time    0.0002: real time    0.0002
    CHARGE:  cpu time    0.0161: real time    0.0161
    MIXING:  cpu time    0.0015: real time    0.0015
    --------------------------------------------
      LOOP:  cpu time    0.1655: real time    0.1659

 eigenvalue-minimisations  :  1080
 total energy-change (2. order) : 0.4857412E-01  (-0.1231970E-01)
 number of electron      18.0000012 magnetization 
 augmentation part        5.6256007 magnetization 

 Broyden mixing:
  rms(total) = 0.46999E-01    rms(broyden)= 0.46965E-01
  rms(prec ) = 0.89307E-01
  weight for this iteration     100.00

 eigenvalues of (default mixing * dielectric matrix)
  average eigenvalue GAMMA=   2.2969
  1.6400  2.9538

 Free energy of the ion-electron system (eV)
  ---------------------------------------------------
  alpha Z        PSCENC =        10.96907945
  Ewald energy   TEWEN  =      -674.76340655
  -Hartree energ DENC   =      -316.14151255
  -exchange      EXHF   =         0.00000000
  -V(xc)+E(xc)   XCENC  =         3.70516355
  PAW double counting   =      1000.55926726    -1066.47929595
  entropy T*S    EENTRO =        -0.00000000
  eigenvalues    EBANDS =      -290.97104519
  atomic energy  EATOM  =      1321.53873213
  Solvation  Ediel_sol  =         0.00000000
  ---------------------------------------------------
  free energy    TOTEN  =       -11.58301785 eV

  energy without entropy =      -11.58301785  energy(sigma->0) =      -11.58301785


--------------------------------------------------------------------------------------------------------




--------------------------------------- Iteration      1(   8)  ---------------------------------------


    POTLOK:  cpu time    0.0310: real time    0.0313
    SETDIJ:  cpu time    0.0024: real time    0.0024
     EDDAV:  cpu time    0.0995: real time    0.0995
       DOS:  cpu time    0.0002: real time    0.0002
    CHARGE:  cpu time    0.0164: real time    0.0164
    MIXING:  cpu time    0.0015: real time    0.0015
    --------------------------------------------
      LOOP:  cpu time    0.1510: real time    0.1513

 eigenvalue-minimisations  :   914
 total energy-change (2. order) : 0.3017276E-02  (-0.1112087E-02)
 number of electron      18.0000012 magnetization 
 augmentation part        5.6178462 magnetization 

 Broyden mixing:
  rms(total) = 0.82019E-02    rms(broyden)= 0.81852E-02
  rms(prec ) = 0.11462E-01
  weight for this iteration     100.00

 eigenvalues of (default mixing * dielectric matrix)
  average eigenvalue GAMMA=   1.7834
  1.0505  2.5619  1.7377

 Free energy of the ion-electron system (eV)
  ---------------------------------------------------
  alpha Z        PSCENC =        10.96907945
  Ewald energy   TEWEN  =      -674.76340655
  -Hartree energ DENC   =      -315.08046894
  -exchange      EXHF   =         0.00000000
  -V(xc)+E(xc)   XCENC  =         3.75291343
  PAW double counting   =      1039.92959512    -1106.33536102
  entropy T*S    EENTRO =        -0.00000000
  eigenvalues    EBANDS =      -291.59108419
  atomic energy  EATOM  =      1321.53873213
  Solvation  Ediel_sol  =         0.00000000
  ---------------------------------------------------
  free energy    TOTEN  =       -11.58000058 eV

  energy without entropy =      -11.58000058  energy(sigma->0) =      -11.58000058


--------------------------------------------------------------------------------------------------------




--------------------------------------- Iteration      1(   9)  ---------------------------------------


    POTLOK:  cpu time    0.0306: real time    0.0309
    SETDIJ:  cpu time    0.0026: real time    0.0026
     EDDAV:  cpu time    0.1187: real time    0.1187
       DOS:  cpu time    0.0002: real time    0.0002
    CHARGE:  cpu time    0.0163: real time    0.0163
    MIXING:  cpu time    0.0016: real time    0.0016
    --------------------------------------------
      LOOP:  cpu time    0.1699: real time    0.1703

 eigenvalue-minimisations  :  1099
 total energy-change (2. order) : 0.1618854E-04  (-0.3629975E-04)
 number of electron      18.0000012 magnetization 
 augmentation part        5.6185405 magnetization 

 Broyden mixing:
  rms(total) = 0.44754E-02    rms(broyden)= 0.44744E-02
  rms(prec ) = 0.64239E-02
  weight for this iteration     100.00

 eigenvalues of (default mixing * dielectric matrix)
  average eigenvalue GAMMA=   1.9738
  2.7239  2.5371  1.1317  1.5024

 Free energy of the ion-electron system (eV)
  ---------------------------------------------------
  alpha Z        PSCENC =        10.96907945
  Ewald energy   TEWEN  =      -674.76340655
  -Hartree energ DENC   =      -315.08647169
  -exchange      EXHF   =         0.00000000
  -V(xc)+E(xc)   XCENC  =         3.74998206
  PAW double counting   =      1036.39697049    -1102.74417703
  entropy T*S    EENTRO =        -0.00000000
  eigenvalues    EBANDS =      -291.64069324
  atomic energy  EATOM  =      1321.53873213
  Solvation  Ediel_sol  =         0.00000000
  ---------------------------------------------------
  free energy    TOTEN  =       -11.57998439 eV

  energy without entropy =      -11.57998439  energy(sigma->0) =      -11.57998439


--------------------------------------------------------------------------------------------------------




--------------------------------------- Iteration      1(  10)  ---------------------------------------


    POTLOK:  cpu time    0.0305: real time    0.0308
    SETDIJ:  cpu time    0.0026: real time    0.0026
     EDDAV:  cpu time    0.1119: real time    0.1119
       DOS:  cpu time    0.0002: real time    0.0002
    CHARGE:  cpu time    0.0166: real time    0.0166
    MIXING:  cpu time    0.0033: real time    0.0033
    --------------------------------------------
      LOOP:  cpu time    0.1651: real time    0.1654

 eigenvalue-minimisations  :  1003
 total energy-change (2. order) : 0.2807759E-04  (-0.5043467E-05)
 number of electron      18.0000012 magnetization 
 augmentation part        5.6191695 magnetization 

 Broyden mixing:
  rms(total) = 0.34963E-03    rms(broyden)= 0.34946E-03
  rms(prec ) = 0.66611E-03
  weight for this iteration     100.00

 eigenvalues of (default mixing * dielectric matrix)
  average eigenvalue GAMMA=   1.7983
  2.8815  2.3327  0.9607  1.4482  1.3683

 Free energy of the ion-electron system (eV)
  ---------------------------------------------------
  alpha Z        PSCENC =        10.96907945
  Ewald energy   TEWEN  =      -674.76340655
  -Hartree energ DENC   =      -315.04553803
  -exchange      EXHF   =         0.00000000
  -V(xc)+E(xc)   XCENC  =         3.75069659
  PAW double counting   =      1032.90975141    -1099.24347794
  entropy T*S    EENTRO =        -0.00000000
  eigenvalues    EBANDS =      -291.69579337
  atomic energy  EATOM  =      1321.53873213
  Solvation  Ediel_sol  =         0.00000000
  ---------------------------------------------------
  free energy    TOTEN  =       -11.57995631 eV

  energy without entropy =      -11.57995631  energy(sigma->0) =      -11.57995631


--------------------------------------------------------------------------------------------------------




--------------------------------------- Iteration      1(  11)  ---------------------------------------


    POTLOK:  cpu time    0.0373: real time    0.0389
    SETDIJ:  cpu time    0.0061: real time    0.0060
     EDDAV:  cpu time    0.0814: real time    0.0815
       DOS:  cpu time    0.0002: real time    0.0002
    --------------------------------------------
      LOOP:  cpu time    0.1249: real time    0.1266

 eigenvalue-minimisations  :   563
 total energy-change (2. order) :-0.1078862E-05  (-0.5376191E-06)
 number of electron      18.0000012 magnetization 
 augmentation part        5.6191695 magnetization 

 Free energy of the ion-electron system (eV)
  ---------------------------------------------------
  alpha Z        PSCENC =        10.96907945
  Ewald energy   TEWEN  =      -674.76340655
  -Hartree energ DENC   =      -315.04328724
  -exchange      EXHF   =         0.00000000
  -V(xc)+E(xc)   XCENC  =         3.75115272
  PAW double counting   =      1033.12872850    -1099.47045392
  entropy T*S    EENTRO =        -0.00000000
  eigenvalues    EBANDS =      -291.69050248
  atomic energy  EATOM  =      1321.53873213
  Solvation  Ediel_sol  =         0.00000000
  ---------------------------------------------------
  free energy    TOTEN  =       -11.57995739 eV

  energy without entropy =      -11.57995739  energy(sigma->0) =      -11.57995739


--------------------------------------------------------------------------------------------------------




 average (electrostatic) potential at core
  the test charge radii are     0.7079  0.9254  1.1712
  (the norm of the test charge is              1.0000)
       1 -61.6571       2 -61.6571       3 -46.3697       4 -87.7323
 
 
 
 E-fermi :   4.0937     XC(G=0):  -8.6919     alpha+bet :-10.7860


 k-point     1 :       0.0000    0.0000    0.0000
  band No.  band energies     occupation 
      1     -42.5737      2.00000
      2     -42.5678      2.00000
      3     -20.5728      2.00000
      4     -20.5728      2.00000
      5     -20.5728      2.00000
      6      -5.2886      2.00000
      7       3.7907      2.00000
      8       3.7907      2.00000
      9       3.7907      2.00000
     10       5.6097      0.00000
     11       6.4234      0.00000
     12       6.4234      0.00000
     13       6.4234      0.00000

 k-point     2 :       0.1250    0.0000    0.0000
  band No.  band energies     occupation 
      1     -42.5735      2.00000
      2     -42.5680      2.00000
      3     -20.5732      2.00000
      4     -20.5728      2.00000
      5     -20.5728      2.00000
      6      -5.2103      2.00000
      7       2.8045      2.00000
      8       3.6304      2.00000
      9       3.6304      2.00000
     10       5.9771      0.00000
     11       6.6872      0.00000
     12       6.6872      0.00000
     13       7.2024      0.00000

 k-point     3 :       0.2500    0.0000    0.0000
  band No.  band energies     occupation 
      1     -42.5729      2.00000
      2     -42.5686      2.00000
      3     -20.5744      2.00000
      4     -20.5730      2.00000
      5     -20.5729      2.00000
      6      -5.0011      2.00000
      7       1.4684      2.00000
      8       3.3345      2.00000
      9       3.3345      2.00000
     10       6.1209      0.00000
     11       6.9463      0.00000
     12       6.9463      0.00000
     13       8.6249      0.00000

 k-point     4 :       0.3750    0.0000    0.0000
  band No.  band energies     occupation 
      1     -42.5719      2.00000
      2     -42.5695      2.00000
      3     -20.5755      2.00000
      4     -20.5731      2.00000
      5     -20.5731      2.00000
      6      -4.7531      2.00000
      7       0.4907      2.00000
      8       3.1096      2.00000
      9       3.1096      2.00000
     10       6.2040      0.00000
     11       6.7610      0.00000
     12       6.7610      0.00000
     13       9.2644      0.00000

 k-point     5 :       0.5000    0.0000    0.0000
  band No.  band energies     occupation 
      1     -42.5707      2.00000
      2     -42.5707      2.00000
      3     -20.5760      2.00000
      4     -20.5731      2.00000
      5     -20.5731      2.00000
      6      -4.6340      2.00000
      7       0.1231      2.00000
      8       3.0294      2.00000
      9       3.0294      2.00000
     10       6.2347      0.00000
     11       6.6433      0.00000
     12       6.6433      0.00000
     13       9.3674      0.00000

 k-point     6 :       0.0000    0.1250    0.0000
  band No.  band energies     occupation 
      1     -42.5734      2.00000
      2     -42.5680      2.00000
      3     -20.5731      2.00000
      4     -20.5730      2.00000
      5     -20.5730      2.00000
      6      -5.1848      2.00000
      7       2.9519      2.00000
      8       3.3182      2.00000
      9       3.3182      2.00000
     10       6.4052      0.00000
     11       6.4104      0.00000
     12       7.1380      0.00000
     13       7.1380      0.00000

 k-point     7 :       0.1250    0.1250    0.0000
  band No.  band energies     occupation 
      1     -42.5730      2.00000
      2     -42.5685      2.00000
      3     -20.5740      2.00000
      4     -20.5732      2.00000
      5     -20.5730      2.00000
      6      -5.0204      2.00000
      7       1.8632      2.00000
      8       2.9811      2.00000
      9       3.1481      2.00000
     10       6.3858      0.00000
     11       6.7235      0.00000
     12       7.5017      0.00000
     13       7.6152      0.00000

 k-point     8 :       0.2500    0.1250    0.0000
  band No.  band energies     occupation 
      1     -42.5722      2.00000
      2     -42.5693      2.00000
      3     -20.5751      2.00000
      4     -20.5733      2.00000
      5     -20.5732      2.00000
      6      -4.7829      2.00000
      7       0.8262      2.00000
      8       2.7913      2.00000
      9       2.8574      2.00000
     10       6.2482      0.00000
     11       7.0213      0.00000
     12       7.4694      0.00000
     13       8.0574      0.00000

 k-point     9 :       0.3750    0.1250    0.0000
  band No.  band energies     occupation 
      1     -42.5711      2.00000
      2     -42.5703      2.00000
      3     -20.5758      2.00000
      4     -20.5734      2.00000
      5     -20.5733      2.00000
      6      -4.6121      2.00000
      7       0.2704      2.00000
      8       2.5852      2.00000
      9       2.7987      2.00000
     10       6.2441      0.00000
     11       7.0115      0.00000
     12       7.1527      0.00000
     13       9.3681      0.00000

 k-point    10 :       0.5000    0.1250    0.0000
  band No.  band energies     occupation 
      1     -42.5714      2.00000
      2     -42.5700      2.00000
      3     -20.5756      2.00000
      4     -20.5735      2.00000
      5     -20.5731      2.00000
      6      -4.6511      2.00000
      7       0.3849      2.00000
      8       2.4609      2.00000
      9       2.9956      2.00000
     10       6.3895      0.00000
     11       7.0217      0.00000
     12       7.0360      0.00000
     13       9.6060      0.00000

 k-point    11 :      -0.3750    0.1250    0.0000
  band No.  band energies     occupation 
      1     -42.5725      2.00000
      2     -42.5690      2.00000
      3     -20.5748      2.00000
      4     -20.5734      2.00000
      5     -20.5729      2.00000
      6      -4.8636      2.00000
      7       1.1116      2.00000
      8       2.5486      2.00000
      9       3.3229      2.00000
     10       6.4684      0.00000
     11       7.0666      0.00000
     12       7.2602      0.00000
     13       8.3602      0.00000

 k-point    12 :      -0.2500    0.1250    0.0000
  band No.  band energies     occupation 
      1     -42.5732      2.00000
      2     -42.5683      2.00000
      3     -20.5738      2.00000
      4     -20.5732      2.00000
      5     -20.5728      2.00000
      6      -5.0884      2.00000
      7       2.1187      2.00000
      8       2.9398      2.00000
      9       3.6253      2.00000
     10       6.3017      0.00000
     11       6.8109      0.00000
     12       7.3632      0.00000
     13       7.6047      0.00000

 k-point    13 :       0.0000    0.2500    0.0000
  band No.  band energies     occupation 
      1     -42.5727      2.00000
      2     -42.5686      2.00000
      3     -20.5740      2.00000
      4     -20.5734      2.00000
      5     -20.5734      2.00000
      6      -4.9141      2.00000
      7       1.8529      2.00000
      8       2.5989      2.00000
      9       2.5989      2.00000
     10       5.8537      0.00000
     11       6.3806      0.00000
     12       8.4992      0.00000
     13       8.4992      0.00000

 k-point    14 :       0.1250    0.2500    0.0000
  band No.  band energies     occupation 
      1     -42.5722      2.00000
      2     -42.5692      2.00000
      3     -20.5748      2.00000
      4     -20.5737      2.00000
      5     -20.5736      2.00000
      6      -4.7252      2.00000
      7       1.1814      2.00000
      8       2.2865      2.00000
      9       2.3770      2.00000
     10       5.5773      0.00000
     11       6.7000      0.00000
     12       8.5843      0.00000
     13       8.7396      0.00000

 k-point    15 :       0.2500    0.2500    0.0000
  band No.  band energies     occupation 
      1     -42.5715      2.00000
      2     -42.5700      2.00000
      3     -20.5753      2.00000
      4     -20.5740      2.00000
      5     -20.5736      2.00000
      6      -4.5553      2.00000
      7       0.6563      2.00000
      8       1.8704      2.00000
      9       2.3734      2.00000
     10       5.6779      0.00000
     11       7.7326      0.00000
     12       8.3998      0.00000
     13       8.4536      0.00000

 k-point    16 :       0.3750    0.2500    0.0000
  band No.  band energies     occupation 
      1     -42.5709      2.00000
      2     -42.5705      2.00000
      3     -20.5753      2.00000
      4     -20.5742      2.00000
      5     -20.5734      2.00000
      6      -4.5288      2.00000
      7       0.5673      2.00000
      8       1.6150      2.00000
      9       2.5878      2.00000
     10       5.9551      0.00000
     11       8.1223      0.00000
     12       8.2526      0.00000
     13       9.3359      0.00000

 k-point    17 :       0.5000    0.2500    0.0000
  band No.  band energies     occupation 
      1     -42.5717      2.00000
      2     -42.5697      2.00000
      3     -20.5750      2.00000
      4     -20.5741      2.00000
      5     -20.5731      2.00000
      6      -4.6678      2.00000
      7       0.8195      2.00000
      8       1.7914      2.00000
      9       2.9635      2.00000
     10       6.3336      0.00000
     11       7.8980      0.00000
     12       7.9671      0.00000
     13       8.1712      0.00000

 k-point    18 :       0.0000    0.3750    0.0000
  band No.  band energies     occupation 
      1     -42.5721      2.00000
      2     -42.5693      2.00000
      3     -20.5750      2.00000
      4     -20.5739      2.00000
      5     -20.5739      2.00000
      6      -4.6064      2.00000
      7       1.0790      2.00000
      8       2.1032      2.00000
      9       2.1032      2.00000
     10       4.8596      0.00000
     11       6.3523      0.00000
     12       9.9377      0.00000
     13       9.9377      0.00000

 k-point    19 :       0.1250    0.3750    0.0000
  band No.  band energies     occupation 
      1     -42.5717      2.00000
      2     -42.5697      2.00000
      3     -20.5752      2.00000
      4     -20.5742      2.00000
      5     -20.5740      2.00000
      6      -4.4924      2.00000
      7       0.8854      2.00000
      8       1.6766      2.00000
      9       2.0483      2.00000
     10       4.9534      0.00000
     11       6.6598      0.00000
     12      10.0117      0.00000
     13      10.0817      0.00000

 k-point    20 :       0.2500    0.3750    0.0000
  band No.  band energies     occupation 
      1     -42.5711      2.00000
      2     -42.5703      2.00000
      3     -20.5750      2.00000
      4     -20.5747      2.00000
      5     -20.5738      2.00000
      6      -4.4591      2.00000
      7       1.0340      2.00000
      8       1.0458      2.00000
      9       2.2233      2.00000
     10       5.4439      0.00000
     11       7.6932      0.00000
     12       9.5735      0.00000
     13       9.5800      0.00000

 k-point    21 :       0.0000    0.5000    0.0000
  band No.  band energies     occupation 
      1     -42.5717      2.00000
      2     -42.5696      2.00000
      3     -20.5753      2.00000
      4     -20.5741      2.00000
      5     -20.5741      2.00000
      6      -4.4643      2.00000
      7       0.7944      2.00000
      8       1.9317      2.00000
      9       1.9317      2.00000
     10       4.4888      0.00000
     11       6.3413      0.00000
     12      11.2448      0.00000
     13      11.2448      0.00000

 k-point    22 :       0.1250    0.1250    0.1250
  band No.  band energies     occupation 
      1     -42.5725      2.00000
      2     -42.5689      2.00000
      3     -20.5745      2.00000
      4     -20.5736      2.00000
      5     -20.5731      2.00000
      6      -4.8415      2.00000
      7       1.3286      2.00000
      8       2.3108      2.00000
      9       2.9624      2.00000
     10       6.4251      0.00000
     11       6.9265      0.00000
     12       7.3046      0.00000
     13       8.5610      0.00000

 k-point    23 :       0.2500    0.1250    0.1250
  band No.  band energies     occupation 
      1     -42.5717      2.00000
      2     -42.5698      2.00000
      3     -20.5752      2.00000
      4     -20.5739      2.00000
      5     -20.5733      2.00000
      6      -4.6355      2.00000
      7       0.7122      2.00000
      8       2.0059      2.00000
      9       2.6337      2.00000
     10       6.5010      0.00000
     11       6.9711      0.00000
     12       7.8502      0.00000
     13       8.6578      0.00000

 k-point    24 :       0.3750    0.1250    0.1250
  band No.  band energies     occupation 
      1     -42.5707      2.00000
      2     -42.5707      2.00000
      3     -20.5755      2.00000
      4     -20.5739      2.00000
      5     -20.5735      2.00000
      6      -4.5396      2.00000
      7       0.4421      2.00000
      8       1.9632      2.00000
      9       2.4569      2.00000
     10       6.6197      0.00000
     11       6.7225      0.00000
     12       8.4597      0.00000
     13       9.4306      0.00000

 k-point    25 :       0.1250    0.2500    0.1250
  band No.  band energies     occupation 
      1     -42.5718      2.00000
      2     -42.5697      2.00000
      3     -20.5750      2.00000
      4     -20.5741      2.00000
      5     -20.5738      2.00000
      6      -4.5708      2.00000
      7       0.9461      2.00000
      8       1.8586      2.00000
      9       2.0782      2.00000
     10       5.6183      0.00000
     11       6.9063      0.00000
     12       8.3423      0.00000
     13      10.0535      0.00000

 k-point    26 :       0.2500    0.2500    0.1250
  band No.  band energies     occupation 
      1     -42.5711      2.00000
      2     -42.5703      2.00000
      3     -20.5751      2.00000
      4     -20.5744      2.00000
      5     -20.5738      2.00000
      6      -4.4719      2.00000
      7       0.8470      2.00000
      8       1.4401      2.00000
      9       1.9583      2.00000
     10       6.0659      0.00000
     11       7.8135      0.00000
     12       7.9259      0.00000
     13       9.5894      0.00000

 k-point    27 :       0.3750    0.2500    0.1250
  band No.  band energies     occupation 
      1     -42.5710      2.00000
      2     -42.5704      2.00000
      3     -20.5750      2.00000
      4     -20.5745      2.00000
      5     -20.5736      2.00000
      6      -4.5013      2.00000
      7       0.7969      2.00000
      8       1.4002      2.00000
      9       2.2205      2.00000
     10       6.5097      0.00000
     11       7.3730      0.00000
     12       8.2680      0.00000
     13       9.3702      0.00000

 k-point    28 :       0.1250    0.3750    0.1250
  band No.  band energies     occupation 
      1     -42.5714      2.00000
      2     -42.5700      2.00000
      3     -20.5752      2.00000
      4     -20.5743      2.00000
      5     -20.5741      2.00000
      6      -4.4505      2.00000
      7       0.9182      2.00000
      8       1.6264      2.00000
      9       1.7000      2.00000
     10       5.3204      0.00000
     11       6.8933      0.00000
     12       9.3856      0.00000
     13      10.1429      0.00000

 k-point    29 :       0.2500    0.2500    0.2500
  band No.  band energies     occupation 
      1     -42.5708      2.00000
      2     -42.5708      2.00000
      3     -20.5747      2.00000
      4     -20.5747      2.00000
      5     -20.5741      2.00000
      6      -4.4364      2.00000
      7       1.2605      2.00000
      8       1.2605      2.00000
      9       1.3940      2.00000
     10       6.9924      0.00000
     11       7.2748      0.00000
     12       8.2827      0.00000
     13       8.2827      0.00000


--------------------------------------------------------------------------------------------------------


 soft charge-density along one line, spin component           1
         0         1         2         3         4         5         6         7         8         9
 total charge-density along one line
 
 pseudopotential strength for first ion, spin component:           1
-38.993   3.378  -0.000  -0.000   0.000
  3.378  -9.773  -0.000  -0.000   0.000
 -0.000  -0.000   0.158  -0.000   0.000
 -0.000  -0.000  -0.000   0.158   0.000
  0.000   0.000   0.000   0.000   0.158
 total augmentation occupancy for first ion, spin component:           1
  2.000   0.003   0.000  -0.000  -0.000
  0.003   0.731  -0.000   0.000   0.000
  0.000  -0.000   0.026   0.000  -0.000
 -0.000   0.000   0.000   0.026  -0.000
  0.000   0.000  -0.000   0.000   0.026


------------------------ aborting loop because EDIFF is reached ----------------------------------------


    CHARGE:  cpu time    0.0177: real time    0.0177
    FORLOC:  cpu time    0.0036: real time    0.0036
    FORNL :  cpu time    0.0184: real time    0.0184
    STRESS:  cpu time    0.0878: real time    0.0878
    FORCOR:  cpu time    0.0329: real time    0.0329
    FORHAR:  cpu time    0.0093: real time    0.0093
    MIXING:  cpu time    0.0033: real time    0.0033
    OFIELD:  cpu time    0.0000: real time    0.0000

  FORCE on cell =-STRESS in cart. coord.  units (eV):
  Direction    XX          YY          ZZ          XY          YZ          ZX
  --------------------------------------------------------------------------------------
  Alpha Z    10.96908    10.96908    10.96908
  Ewald    -224.92131  -224.92131  -224.92131     0.00000     0.00000     0.00015
  Hartree   105.01390   105.01390   105.01390    -0.00000     0.00000     0.00007
  E(xc)     -85.52743   -85.52745   -85.52753     0.00000     0.00000     0.00006
  Local     -58.46168   -58.46153   -58.46131    -0.00000    -0.00000    -0.00043
  n-local    28.35127    28.90904    28.76643     1.84439    -0.82680     1.38328
  augment    61.13135    61.13120    61.13100     0.00000    -0.00000     0.00017
  Kinetic   164.36466   165.08573   161.60381     2.85356    -1.26800     1.59140
  Fock        0.00000     0.00000     0.00000     0.00000     0.00000     0.00000
  -------------------------------------------------------------------------------------
  Total       0.56419     0.56419     0.56419     0.00000     0.00000    -0.00000
  in kB      11.72432    11.72432    11.72432     0.00000     0.00000    -0.00000
  external pressure =       11.72 kB  Pullay stress =        0.00 kB


 VOLUME and BASIS-vectors are now :
 -----------------------------------------------------------------------------
  energy-cutoff  :      520.00
  volume of cell :       77.10
      direct lattice vectors                 reciprocal lattice vectors
     3.378108000 -3.378108000  0.000000000     0.148011846 -0.148011846 -0.148011846
    -3.378108000  0.000000000 -3.378108000     0.000000000  0.000000000 -0.296023691
     3.378108000  3.378108000  0.000000000     0.148011846  0.148011846 -0.148011846

  length of vectors
     4.777366149  4.777366149  4.777366149     0.256364037  0.296023691  0.256364037


 FORCES acting on ions
    electron-ion (+dipol)            ewald-force                    non-local-force                 convergence-correction
 -----------------------------------------------------------------------------------------------
   0.166E-02 -.166E-02 -.168E-02   0.146E-03 -.169E-03 -.113E-03   -.138E-17 0.209E-17 0.217E-18   0.475E-07 0.535E-06 -.114E-06
   0.166E-02 0.166E-02 -.168E-02   0.146E-03 0.169E-03 -.113E-03   -.518E-17 -.106E-17 0.217E-17   0.475E-07 -.535E-06 -.114E-06
   -.353E-03 0.860E-11 -.419E-04   -.252E-03 -.259E-14 0.131E-03   0.424E-21 0.000E+00 0.000E+00   0.140E-05 -.215E-13 -.651E-06
   -.508E-05 0.130E-11 -.299E-04   -.391E-04 0.397E-14 0.939E-04   -.159E-21 0.529E-22 0.000E+00   -.258E-07 -.909E-15 -.134E-06
 -----------------------------------------------------------------------------------------------
   0.296E-02 0.972E-10 -.343E-02   -.278E-15 0.643E-16 0.292E-15   -.656E-17 0.103E-17 0.239E-17   0.147E-05 -.200E-13 -.101E-05
 
 
 POSITION                                       TOTAL-FORCE (eV/Angst)
 -----------------------------------------------------------------------------------
      1.68905     -1.68905     -1.68905         0.000000      0.000000     -0.000000
      1.68905      1.68905     -1.68905        -0.000000      0.000000      0.000000
      3.37811      0.00000      0.00000        -0.000000     -0.000000      0.000000
      0.00000      0.00000      0.00000        -0.000000     -0.000000      0.000000
 -----------------------------------------------------------------------------------
    total drift:                                0.002964      0.000000     -0.003436


--------------------------------------------------------------------------------------------------------



  FREE ENERGIE OF THE ION-ELECTRON SYSTEM (eV)
  ---------------------------------------------------
  free  energy   TOTEN  =       -11.57995739 eV

  energy  without entropy=      -11.57995739  energy(sigma->0) =      -11.57995739
 


--------------------------------------------------------------------------------------------------------


    POTLOK:  cpu time    0.0346: real time    0.0346


--------------------------------------------------------------------------------------------------------




--------------------------------------------------------------------------------------------------------


    WAVPRE:  cpu time    0.0128: real time    0.0157
    FEWALD:  cpu time    0.0002: real time    0.0002
    GENKIN:  cpu time    0.0082: real time    0.0082
    ORTHCH:  cpu time    0.0099: real time    0.0099
     LOOP+:  cpu time    1.8127: real time    1.8255


--------------------------------------- Iteration      2(   1)  ---------------------------------------


    POTLOK:  cpu time    0.0318: real time    0.0349
    SETDIJ:  cpu time    0.0039: real time    0.0039
     EDDAV:  cpu time    0.1049: real time    0.1050
       DOS:  cpu time    0.0002: real time    0.0002
    CHARGE:  cpu time    0.0194: real time    0.0194
[...]
      9       2.8155      2.00000
     10       5.8665      0.00000
     11       6.3812      0.00000
     12       6.3812      0.00000
     13       8.9676      0.00000

 k-point     6 :       0.0000    0.1250    0.0000
  band No.  band energies     occupation 
      1     -42.8661      2.00000
      2     -42.8615      2.00000
      3     -20.8366      2.00000
      4     -20.8364      2.00000
      5     -20.8364      2.00000
      6      -5.3237      2.00000
      7       2.6977      2.00000
      8       3.0903      2.00000
      9       3.0903      2.00000
     10       5.9795      0.00000
     11       6.1641      0.00000
     12       6.8624      0.00000
     13       6.8624      0.00000

 k-point     7 :       0.1250    0.1250    0.0000
  band No.  band energies     occupation 
      1     -42.8657      2.00000
      2     -42.8619      2.00000
      3     -20.8373      2.00000
      4     -20.8366      2.00000
      5     -20.8365      2.00000
      6      -5.1689      2.00000
      7       1.6556      2.00000
      8       2.7682      2.00000
      9       2.9204      2.00000
     10       6.0418      0.00000
     11       6.4441      0.00000
     12       7.1895      0.00000
     13       7.3189      0.00000

 k-point     8 :       0.2500    0.1250    0.0000
  band No.  band energies     occupation 
      1     -42.8650      2.00000
      2     -42.8626      2.00000
      3     -20.8382      2.00000
      4     -20.8367      2.00000
      5     -20.8366      2.00000
      6      -4.9467      2.00000
      7       0.6611      2.00000
      8       2.5864      2.00000
      9       2.6414      2.00000
     10       5.9356      0.00000
     11       6.6984      0.00000
     12       7.1794      0.00000
     13       7.7286      0.00000

 k-point     9 :       0.3750    0.1250    0.0000
  band No.  band energies     occupation 
      1     -42.8641      2.00000
      2     -42.8635      2.00000
      3     -20.8387      2.00000
      4     -20.8368      2.00000
      5     -20.8367      2.00000
      6      -4.7886      2.00000
      7       0.1305      2.00000
      8       2.3798      2.00000
      9       2.5939      2.00000
     10       5.9384      0.00000
     11       6.6703      0.00000
     12       6.8738      0.00000
     13       8.9968      0.00000

 k-point    10 :       0.5000    0.1250    0.0000
  band No.  band energies     occupation 
      1     -42.8644      2.00000
      2     -42.8632      2.00000
      3     -20.8386      2.00000
      4     -20.8369      2.00000
      5     -20.8366      2.00000
      6      -4.8246      2.00000
      7       0.2396      2.00000
      8       2.2606      2.00000
      9       2.7830      2.00000
     10       6.0689      0.00000
     11       6.7017      0.00000
     12       6.7505      0.00000
     13       9.1743      0.00000

 k-point    11 :      -0.3750    0.1250    0.0000
  band No.  band energies     occupation 
      1     -42.8653      2.00000
      2     -42.8623      2.00000
      3     -20.8379      2.00000
      4     -20.8368      2.00000
      5     -20.8364      2.00000
      6      -5.0222      2.00000
      7       0.9343      2.00000
      8       2.3470      2.00000
      9       3.0956      2.00000
     10       6.1219      0.00000
     11       6.8048      0.00000
     12       6.9410      0.00000
     13       8.0513      0.00000

 k-point    12 :      -0.2500    0.1250    0.0000
  band No.  band energies     occupation 
      1     -42.8659      2.00000
      2     -42.8617      2.00000
      3     -20.8371      2.00000
      4     -20.8366      2.00000
      5     -20.8363      2.00000
      6      -5.2329      2.00000
      7       1.9015      2.00000
      8       2.7270      2.00000
      9       3.3818      2.00000
     10       5.9354      0.00000
     11       6.5638      0.00000
     12       7.0579      0.00000
     13       7.2619      0.00000

 k-point    13 :       0.0000    0.2500    0.0000
  band No.  band energies     occupation 
      1     -42.8655      2.00000
      2     -42.8620      2.00000
      3     -20.8373      2.00000
      4     -20.8368      2.00000
      5     -20.8368      2.00000
      6      -5.0687      2.00000
      7       1.6359      2.00000
      8       2.4005      2.00000
      9       2.4005      2.00000
     10       5.5468      0.00000
     11       6.1171      0.00000
     12       8.1662      0.00000
     13       8.1662      0.00000

 k-point    14 :       0.1250    0.2500    0.0000
  band No.  band energies     occupation 
      1     -42.8651      2.00000
      2     -42.8625      2.00000
      3     -20.8379      2.00000
      4     -20.8370      2.00000
      5     -20.8370      2.00000
      6      -4.8921      2.00000
      7       0.9995      2.00000
      8       2.0929      2.00000
      9       2.1866      2.00000
     10       5.2835      0.00000
     11       6.4201      0.00000
     12       8.2049      0.00000
     13       8.4043      0.00000

 k-point    15 :       0.2500    0.2500    0.0000
  band No.  band energies     occupation 
      1     -42.8644      2.00000
      2     -42.8632      2.00000
      3     -20.8384      2.00000
      4     -20.8373      2.00000
      5     -20.8370      2.00000
      6      -4.7347      2.00000
      7       0.5034      2.00000
      8       1.6855      2.00000
      9       2.1835      2.00000
     10       5.3855      0.00000
     11       7.4216      0.00000
     12       8.0605      0.00000
     13       8.0821      0.00000

 k-point    16 :       0.3750    0.2500    0.0000
  band No.  band energies     occupation 
      1     -42.8639      2.00000
      2     -42.8637      2.00000
      3     -20.8384      2.00000
      4     -20.8375      2.00000
      5     -20.8368      2.00000
      6      -4.7105      2.00000
      7       0.4208      2.00000
      8       1.4367      2.00000
      9       2.3907      2.00000
     10       5.6588      0.00000
     11       7.8168      0.00000
     12       7.8629      0.00000
     13       8.9742      0.00000

 k-point    17 :       0.5000    0.2500    0.0000
  band No.  band energies     occupation 
      1     -42.8647      2.00000
      2     -42.8629      2.00000
      3     -20.8381      2.00000
      4     -20.8373      2.00000
      5     -20.8366      2.00000
      6      -4.8395      2.00000
      7       0.6571      2.00000
      8       1.6115      2.00000
      9       2.7522      2.00000
     10       6.0284      0.00000
     11       7.5098      0.00000
     12       7.6937      0.00000
     13       7.8481      0.00000

 k-point    18 :       0.0000    0.3750    0.0000
  band No.  band energies     occupation 
      1     -42.8649      2.00000
      2     -42.8626      2.00000
      3     -20.8381      2.00000
      4     -20.8372      2.00000
      5     -20.8372      2.00000
      6      -4.7809      2.00000
      7       0.9004      2.00000
      8       1.9219      2.00000
      9       1.9219      2.00000
     10       4.5820      0.00000
     11       6.0731      0.00000
     12       9.5538      0.00000
     13       9.5538      0.00000

 k-point    19 :       0.1250    0.3750    0.0000
  band No.  band energies     occupation 
      1     -42.8646      2.00000
      2     -42.8630      2.00000
      3     -20.8383      2.00000
      4     -20.8375      2.00000
      5     -20.8373      2.00000
      6      -4.6753      2.00000
      7       0.7205      2.00000
      8       1.5057      2.00000
      9       1.8689      2.00000
     10       4.6718      0.00000
     11       6.3703      0.00000
     12       9.6385      0.00000
     13       9.6608      0.00000

 k-point    20 :       0.2500    0.3750    0.0000
  band No.  band energies     occupation 
      1     -42.8642      2.00000
      2     -42.8634      2.00000
      3     -20.8381      2.00000
      4     -20.8379      2.00000
      5     -20.8371      2.00000
      6      -4.6452      2.00000
      7       0.8792      2.00000
      8       0.8803      2.00000
      9       2.0384      2.00000
     10       5.1532      0.00000
     11       7.3778      0.00000
     12       9.1446      0.00000
     13       9.2067      0.00000

 k-point    21 :       0.0000    0.5000    0.0000
  band No.  band energies     occupation 
      1     -42.8647      2.00000
      2     -42.8629      2.00000
      3     -20.8384      2.00000
      4     -20.8374      2.00000
      5     -20.8374      2.00000
      6      -4.6489      2.00000
      7       0.6328      2.00000
      8       1.7559      2.00000
      9       1.7559      2.00000
     10       4.2177      0.00000
     11       6.0563      0.00000
     12      10.7896      0.00000
     13      10.7896      0.00000

 k-point    22 :       0.1250    0.1250    0.1250
  band No.  band energies     occupation 
      1     -42.8653      2.00000
      2     -42.8623      2.00000
      3     -20.8377      2.00000
      4     -20.8370      2.00000
      5     -20.8366      2.00000
      6      -5.0010      2.00000
      7       1.1406      2.00000
      8       2.1191      2.00000
      9       2.7468      2.00000
     10       6.0949      0.00000
     11       6.6560      0.00000
     12       6.9843      0.00000
     13       8.2181      0.00000

 k-point    23 :       0.2500    0.1250    0.1250
  band No.  band energies     occupation 
      1     -42.8646      2.00000
      2     -42.8630      2.00000
      3     -20.8383      2.00000
      4     -20.8372      2.00000
      5     -20.8367      2.00000
      6      -4.8093      2.00000
      7       0.5548      2.00000
      8       1.8189      2.00000
      9       2.4324      2.00000
     10       6.1891      0.00000
     11       6.6521      0.00000
     12       7.5447      0.00000
     13       8.2961      0.00000

 k-point    24 :       0.3750    0.1250    0.1250
  band No.  band energies     occupation 
      1     -42.8638      2.00000
      2     -42.8638      2.00000
      3     -20.8385      2.00000
      4     -20.8372      2.00000
      5     -20.8368      2.00000
      6      -4.7207      2.00000
      7       0.2990      2.00000
      8       1.7744      2.00000
      9       2.2634      2.00000
     10       6.3224      0.00000
     11       6.3963      0.00000
     12       8.1147      0.00000
     13       9.0622      0.00000

 k-point    25 :       0.1250    0.2500    0.1250
  band No.  band energies     occupation 
      1     -42.8647      2.00000
      2     -42.8629      2.00000
      3     -20.8382      2.00000
      4     -20.8374      2.00000
      5     -20.8371      2.00000
      6      -4.7484      2.00000
      7       0.7778      2.00000
      8       1.6805      2.00000
      9       1.8954      2.00000
     10       5.3205      0.00000
     11       6.6186      0.00000
     12       7.9891      0.00000
     13       9.6646      0.00000

 k-point    26 :       0.2500    0.2500    0.1250
  band No.  band energies     occupation 
      1     -42.8641      2.00000
      2     -42.8635      2.00000
      3     -20.8382      2.00000
      4     -20.8377      2.00000
      5     -20.8371      2.00000
      6      -4.6571      2.00000
      7       0.6917      2.00000
      8       1.2684      2.00000
      9       1.7795      2.00000
     10       5.7598      0.00000
     11       7.4986      0.00000
     12       7.5797      0.00000
     13       9.2385      0.00000

 k-point    27 :       0.3750    0.2500    0.1250
  band No.  band energies     occupation 
      1     -42.8640      2.00000
      2     -42.8635      2.00000
      3     -20.8381      2.00000
      4     -20.8377      2.00000
      5     -20.8370      2.00000
      6      -4.6847      2.00000
      7       0.6434      2.00000
      8       1.2290      2.00000
      9       2.0331      2.00000
     10       6.1994      0.00000
     11       7.0283      0.00000
     12       7.9598      0.00000
     13       9.0185      0.00000

 k-point    28 :       0.1250    0.3750    0.1250
  band No.  band energies     occupation 
      1     -42.8644      2.00000
      2     -42.8632      2.00000
      3     -20.8383      2.00000
      4     -20.8375      2.00000
      5     -20.8374      2.00000
      6      -4.6366      2.00000
      7       0.7549      2.00000
      8       1.4593      2.00000
      9       1.5265      2.00000
     10       5.0285      0.00000
     11       6.5993      0.00000
     12       8.9910      0.00000
     13       9.7880      0.00000

 k-point    29 :       0.2500    0.2500    0.2500
  band No.  band energies     occupation 
      1     -42.8638      2.00000
      2     -42.8638      2.00000
      3     -20.8379      2.00000
      4     -20.8379      2.00000
      5     -20.8374      2.00000
      6      -4.6242      2.00000
      7       1.0924      2.00000
      8       1.0924      2.00000
      9       1.2344      2.00000
     10       6.6531      0.00000
     11       6.9391      0.00000
     12       7.9643      0.00000
     13       7.9643      0.00000


--------------------------------------------------------------------------------------------------------


 soft charge-density along one line, spin component           1
         0         1         2         3         4         5         6         7         8         9
 total charge-density along one line
 
 pseudopotential strength for first ion, spin component:           1
-39.150   3.328  -0.000  -0.000   0.000
  3.328  -9.719  -0.000  -0.000   0.000
 -0.000  -0.000   0.161  -0.000   0.000
 -0.000  -0.000  -0.000   0.161   0.000
  0.000   0.000   0.000   0.000   0.161
 total augmentation occupancy for first ion, spin component:           1
  2.000   0.002  -0.000  -0.000   0.000
  0.002   0.705  -0.000  -0.000   0.000
 -0.000  -0.000   0.025  -0.000   0.000
 -0.000   0.000  -0.000   0.025   0.000
  0.000  -0.000   0.000   0.000   0.025


------------------------ aborting loop because EDIFF is reached ----------------------------------------


    CHARGE:  cpu time    0.0164: real time    0.0164
    FORLOC:  cpu time    0.0035: real time    0.0035
    FORNL :  cpu time    0.0176: real time    0.0176
    STRESS:  cpu time    0.0907: real time    0.0907
    FORCOR:  cpu time    0.0334: real time    0.0335
    FORHAR:  cpu time    0.0102: real time    0.0102
    MIXING:  cpu time    0.0024: real time    0.0024
    OFIELD:  cpu time    0.0000: real time    0.0000

  FORCE on cell =-STRESS in cart. coord.  units (eV):
  Direction    XX          YY          ZZ          XY          YZ          ZX
  --------------------------------------------------------------------------------------
  Alpha Z    10.58174    10.58174    10.58174
  Ewald    -222.24204  -222.24204  -222.24204     0.00000     0.00000     0.00015
  Hartree   106.12124   106.12124   106.12124    -0.00000     0.00000     0.00006
  E(xc)     -85.34046   -85.34049   -85.34058     0.00000     0.00000     0.00006
  Local     -61.62821   -61.62805   -61.62782    -0.00000    -0.00000    -0.00043
  n-local    28.57713    29.10027    28.83926     1.86592    -0.83586     1.40128
  augment    61.32427    61.32412    61.32391     0.00000     0.00000     0.00016
  Kinetic   163.02195   163.73225   160.29142     2.78864    -1.23370     1.55426
  Fock        0.00000     0.00000     0.00000     0.00000     0.00000     0.00000
  -------------------------------------------------------------------------------------
  Total       0.00394     0.00394     0.00394     0.00000    -0.00000    -0.00000
  in kB       0.07889     0.07889     0.07889     0.00000    -0.00000    -0.00000
  external pressure =        0.08 kB  Pullay stress =        0.00 kB


 VOLUME and BASIS-vectors are now :
 -----------------------------------------------------------------------------
  energy-cutoff  :      520.00
  volume of cell :       79.92
      direct lattice vectors                 reciprocal lattice vectors
     3.418833342 -3.418833342 -0.000000000     0.146248720 -0.146248720 -0.146248720
    -3.418833342 -0.000000000 -3.418833342    -0.000000000 -0.000000000 -0.292497440
     3.418833342  3.418833342 -0.000000000     0.146248720  0.146248720 -0.146248720

  length of vectors
     4.834960480  4.834960480  4.834960480     0.253310213  0.292497440  0.253310213


 FORCES acting on ions
    electron-ion (+dipol)            ewald-force                    non-local-force                 convergence-correction
 -----------------------------------------------------------------------------------------------
   0.167E-02 -.168E-02 -.169E-02   0.142E-03 -.165E-03 -.110E-03   -.407E-17 0.157E-17 0.542E-18   0.778E-08 -.634E-08 -.773E-08
   0.167E-02 0.168E-02 -.169E-02   0.142E-03 0.165E-03 -.110E-03   0.434E-18 -.683E-17 0.543E-18   0.778E-08 0.634E-08 -.773E-08
   -.364E-03 0.117E-11 -.411E-04   -.246E-03 -.864E-14 0.128E-03   -.424E-21 -.424E-21 -.454E-23   -.427E-08 -.352E-14 0.138E-09
   -.482E-05 0.573E-11 -.293E-04   -.382E-04 -.290E-15 0.917E-04   0.000E+00 -.106E-21 0.884E-24   0.188E-10 -.935E-15 0.156E-09
 -----------------------------------------------------------------------------------------------
   0.298E-02 -.828E-10 -.346E-02   -.835E-16 0.407E-15 -.531E-15   -.363E-17 -.526E-17 0.108E-17   0.113E-07 -.783E-14 -.152E-07
 
 
 POSITION                                       TOTAL-FORCE (eV/Angst)
 -----------------------------------------------------------------------------------
      1.70941     -1.70941     -1.70941         0.000000     -0.000000     -0.000000
      1.70941      1.70941     -1.70941        -0.000000      0.000000      0.000000
      3.41884      0.00000     -0.00000         0.000000     -0.000000      0.000000
     -0.00000     -0.00000      0.00000         0.000000     -0.000000     -0.000000
 -----------------------------------------------------------------------------------
    total drift:                                0.002977     -0.000000     -0.003457


--------------------------------------------------------------------------------------------------------



  FREE ENERGIE OF THE ION-ELECTRON SYSTEM (eV)
  ---------------------------------------------------
  free  energy   TOTEN  =       -11.58992017 eV

  energy  without entropy=      -11.58992017  energy(sigma->0) =      -11.58992017
 
 d Force = 0.0000000E+00[ 0.000E+00, 0.000E+00]  d Energy = 0.2989239E-06-0.299E-06
 d Force = 0.0000000E+00[ 0.000E+00, 0.000E+00]  d Ewald  = 0.7237121E-01-0.724E-01


--------------------------------------------------------------------------------------------------------


    POTLOK:  cpu time    0.0347: real time    0.0347


--------------------------------------------------------------------------------------------------------




--------------------------------------------------------------------------------------------------------


  
 reached required accuracy - stopping structural energy minimisation
     LOOP+:  cpu time    0.8088: real time    0.8180
    4ORBIT:  cpu time    0.0000: real time    0.0000

 total amount of memory used by VASP MPI-rank0    40894. kBytes
=======================================================================

   base      :      30000. kBytes
   nonl-proj :       2770. kBytes
   fftplans  :       2164. kBytes
   grid      :       4040. kBytes
   one-center:          8. kBytes
   wavefun   :       1912. kBytes
 
  
  
 General timing and accounting informations for this job:
 ========================================================
  
                  Total CPU time used (sec):        7.301
                            User time (sec):        7.091
                          System time (sec):        0.209
                         Elapsed time (sec):        7.430
  
                   Maximum memory used (kb):       90108.
                   Average memory used (kb):           0.
  
                          Minor page faults:        27127
                          Major page faults:            0
                 Voluntary context switches:          539
