<?xml version="1.0" encoding="ISO-8859-1"?>
<modeling>
 <generator>
  <i name="program" type="string">vasp </i>
  <i name="version" type="string">5.4.4.18Apr17-6-g9f103f2a35  </i>
  <i name="subversion" type="string">(build Jun 23 2019 17:35:09) complex            parallel </i>
  <i name="platform" type="string">LinuxIFC </i>
  <i name="date" type="string">2020 01 14 </i>
  <i name="time" type="string">23:25:09 </i>
 </generator>
 <incar>
  <i type="int" name="ISTART">     0</i>
  <i type="string" name="PREC">acc</i>
  <i type="string" name="ALGO"> Normal</i>
  <i type="int" name="ISPIN">     1</i>
  <i type="int" name="NELMIN">     5</i>
  <i type="int" name="IBRION">     2</i>
  <i name="EDIFF">      0.00001000</i>
  <i name="EDIFFG">     -0.00100000</i>
  <i type="int" name="NSW">   100</i>
  <i type="int" name="ISIF">     3</i>
  <i name="ENCUT">    520.00000000</i>
  <i type="logical" name="LREAL"> F  </i>
  <i type="logical" name="LPLANE"> T  </i>
  <i type="int" name="ISMEAR">     0</i>
  <i name="SIGMA">      0.05000000</i>
  <i type="logical" name="LWAVE"> F  </i>
  <i type="logical" name="LCHARG"> F  </i>
  <v type="int" name="KPOINT_BSE">    -1     0     0     0</v>
  <i type="string" name="GGA"> PE</i>
 </incar>
 <structure name="primitive_cell" >
  <crystal>
   <varray name="basis" >
    <v>       3.37810800      -3.37810800       0.00000000 </v>
    <v>      -3.37810800       0.00000000      -3.37810800 </v>
    <v>       3.37810800       3.37810800       0.00000000 </v>
   </varray>
   <i name="volume">     77.09932679 </i>
   <varray name="rec_basis" >
    <v>       0.14801185      -0.14801185      -0.14801185 </v>
    <v>       0.00000000       0.00000000      -0.29602369 </v>
    <v>       0.14801185       0.14801185      -0.14801185 </v>
   </varray>
  </crystal>
  <varray name="positions" >
   <v>      -0.25000178       0.49999882       0.24999941 </v>
   <v>       0.00000000       0.00000000       0.00000000 </v>
   <v>      -0.49999970       0.00000000      -0.49999970 </v>
   <v>       0.24999941       0.49999882      -0.25000178 </v>
  </varray>
 </structure>
 <varray name="primitive_index" >
  <v type="int" >        1 </v>
  <v type="int" >        4 </v>
  <v type="int" >        3 </v>
  <v type="int" >        2 </v>
 </varray>
 <kpoints>
  <generation param="Gamma">
   <v type="int" name="divisions">       8        8        8 </v>
   <v name="usershift">      0.00000000       0.00000000       0.00000000 </v>
   <v name="genvec1">      0.12500000       0.00000000       0.00000000 </v>
   <v name="genvec2">      0.00000000       0.12500000       0.00000000 </v>
   <v name="genvec3">      0.00000000       0.00000000       0.12500000 </v>
   <v name="shift">      0.00000000       0.00000000       0.00000000 </v>
  </generation>
  <varray name="kpointlist" >
   <v>       0.00000000       0.00000000       0.00000000 </v>
   <v>       0.12500000       0.00000000       0.00000000 </v>
   <v>       0.25000000       0.00000000       0.00000000 </v>
   <v>       0.37500000       0.00000000       0.00000000 </v>
   <v>       0.50000000       0.00000000       0.00000000 </v>
   <v>       0.00000000       0.12500000       0.00000000 </v>
   <v>       0.12500000       0.12500000       0.00000000 </v>
   <v>       0.25000000       0.12500000       0.00000000 </v>
   <v>       0.37500000       0.12500000       0.00000000 </v>
   <v>       0.50000000       0.12500000       0.00000000 </v>
   <v>      -0.37500000       0.12500000       0.00000000 </v>
   <v>      -0.25000000       0.12500000       0.00000000 </v>
   <v>       0.00000000       0.25000000       0.00000000 </v>
   <v>       0.12500000       0.25000000       0.00000000 </v>
   <v>       0.25000000       0.25000000       0.00000000 </v>
   <v>       0.37500000       0.25000000       0.00000000 </v>
   <v>       0.50000000       0.25000000       0.00000000 </v>
   <v>       0.00000000       0.37500000       0.00000000 </v>
   <v>       0.12500000       0.37500000       0.00000000 </v>
   <v>       0.25000000       0.37500000       0.00000000 </v>
   <v>       0.00000000       0.50000000       0.00000000 </v>
   <v>       0.12500000       0.12500000       0.12500000 </v>
   <v>       0.25000000       0.12500000       0.12500000 </v>
   <v>       0.37500000       0.12500000       0.12500000 </v>
   <v>       0.12500000       0.25000000       0.12500000 </v>
   <v>       0.25000000       0.25000000       0.12500000 </v>
   <v>       0.37500000       0.25000000       0.12500000 </v>
   <v>       0.12500000       0.37500000       0.12500000 </v>
   <v>       0.25000000       0.25000000       0.25000000 </v>
  </varray>
  <varray name="weights" >
   <v>       0.00195312 </v>
   <v>       0.01562500 </v>
   <v>       0.01562500 </v>
   <v>       0.01562500 </v>
   <v>       0.00781250 </v>
   <v>       0.01171875 </v>
   <v>       0.04687500 </v>
   <v>       0.04687500 </v>
   <v>       0.04687500 </v>
   <v>       0.04687500 </v>
   <v>       0.04687500 </v>
   <v>       0.02343750 </v>
   <v>       0.01171875 </v>
   <v>       0.04687500 </v>
   <v>       0.04687500 </v>
   <v>       0.04687500 </v>
   <v>       0.02343750 </v>
   <v>       0.01171875 </v>
   <v>       0.04687500 </v>
   <v>       0.02343750 </v>
   <v>       0.00585938 </v>
   <v>       0.04687500 </v>
   <v>       0.09375000 </v>
   <v>       0.04687500 </v>
   <v>       0.04687500 </v>
   <v>       0.09375000 </v>
   <v>       0.04687500 </v>
   <v>       0.02343750 </v>
   <v>       0.01171875 </v>
  </varray>
 </kpoints>
 <parameters>
  <separator name="general" >
   <i type="string" name="SYSTEM">unknown system</i>
   <i type="logical" name="LCOMPAT"> F  </i>
  </separator>
  <separator name="electronic" >
   <i type="string" name="PREC">acc</i>
   <i name="ENMAX">    520.00000000</i>
   <i name="ENAUG">    628.94500000</i>
   <i name="EDIFF">      0.00001000</i>
   <i type="int" name="IALGO">    38</i>
   <i type="int" name="IWAVPR">    11</i>
   <i type="int" name="NBANDS">    13</i>
   <i name="NELECT">     18.00000000</i>
   <i type="int" name="TURBO">     0</i>
   <i type="int" name="IRESTART">     0</i>
   <i type="int" name="NREBOOT">     0</i>
   <i type="int" name="NMIN">     0</i>
   <i name="EREF">      0.00000000</i>
   <separator name="electronic smearing" >
    <i type="int" name="ISMEAR">     0</i>
    <i name="SIGMA">      0.05000000</i>
    <i name="KSPACING">      0.50000000</i>
    <i type="logical" name="KGAMMA"> T  </i>
   </separator>
   <separator name="electronic projectors" >
    <i type="logical" name="LREAL"> F  </i>
    <v name="ROPT">      0.00000000      0.00000000      0.00000000</v>
    <i type="int" name="LMAXPAW">  -100</i>
    <i type="int" name="LMAXMIX">     2</i>
    <i type="logical" name="NLSPLINE"> F  </i>
   </separator>
   <separator name="electronic startup" >
    <i type="int" name="ISTART">     0</i>
    <i type="int" name="ICHARG">     2</i>
    <i type="int" name="INIWAV">     1</i>
   </separator>
   <separator name="electronic spin" >
    <i type="int" name="ISPIN">     1</i>
    <i type="logical" name="LNONCOLLINEAR"> F  </i>
    <v name="MAGMOM">      1.00000000      1.00000000      1.00000000      1.00000000</v>
    <i name="NUPDOWN">     -1.00000000</i>
    <i type="logical" name="LSORBIT"> F  </i>
    <v name="SAXIS">      0.00000000      0.00000000      1.00000000</v>
    <i type="logical" name="LSPIRAL"> F  </i>
    <v name="QSPIRAL">      0.00000000      0.00000000      0.00000000</v>
    <i type="logical" name="LZEROZ"> F  </i>
   </separator>
   <separator name="electronic exchange-correlation" >
    <i type="logical" name="LASPH"> F  </i>
    <i type="logical" name="LMETAGGA"> F  </i>
   </separator>
   <separator name="electronic convergence" >
    <i type="int" name="NELM">    60</i>
    <i type="int" name="NELMDL">    -5</i>
    <i type="int" name="NELMIN">     5</i>
    <i name="ENINI">    520.00000000</i>
    <separator name="electronic convergence detail" >
     <i type="logical" name="LDIAG"> T  </i>
     <i type="logical" name="LSUBROT"> F  </i>
     <i name="WEIMIN">      0.00100000</i>
     <i name="EBREAK">      0.00000019</i>
     <i name="DEPER">      0.30000000</i>
     <i type="int" name="NRMM">     4</i>
     <i name="TIME">      0.40000000</i>
    </separator>
   </separator>
   <separator name="electronic mixer" >
    <i name="AMIX">      0.40000000</i>
    <i name="BMIX">      1.00000000</i>
    <i name="AMIN">      0.10000000</i>
    <i name="AMIX_MAG">      1.60000000</i>
    <i name="BMIX_MAG">      1.00000000</i>
    <separator name="electronic mixer details" >
     <i type="int" name="IMIX">     4</i>
     <i type="logical" name="MIXFIRST"> F  </i>
     <i type="int" name="MAXMIX">   -45</i>
     <i name="WC">    100.00000000</i>
     <i type="int" name="INIMIX">     1</i>
     <i type="int" name="MIXPRE">     1</i>
     <i type="int" name="MREMOVE">     5</i>
    </separator>
   </separator>
   <separator name="electronic dipolcorrection" >
    <i type="logical" name="LDIPOL"> F  </i>
    <i type="logical" name="LMONO"> F  </i>
    <i type="int" name="IDIPOL">     0</i>
    <i name="EPSILON">      1.00000000</i>
    <v name="DIPOL">   -100.00000000   -100.00000000   -100.00000000</v>
    <i name="EFIELD">      0.00000000</i>
   </separator>
  </separator>
  <separator name="grids" >
   <i type="int" name="NGX">    36</i>
   <i type="int" name="NGY">    36</i>
   <i type="int" name="NGZ">    36</i>
   <i type="int" name="NGXF">    72</i>
   <i type="int" name="NGYF">    72</i>
   <i type="int" name="NGZF">    72</i>
   <i type="logical" name="ADDGRID"> F  </i>
  </separator>
  <separator name="ionic" >
   <i type="int" name="NSW">   100</i>
   <i type="int" name="IBRION">     2</i>
   <i type="int" name="MDALGO">     0</i>
   <i type="int" name="ISIF">     3</i>
   <i name="PSTRESS">      0.00000000</i>
   <i name="EDIFFG">     -0.00100000</i>
   <i type="int" name="NFREE">     1</i>
   <i name="POTIM">      0.50000000</i>
   <i name="SMASS">     -3.00000000</i>
   <i name="SCALEE">      1.00000000</i>
  </separator>
  <separator name="ionic md" >
   <i name="TEBEG">      0.00010000</i>
   <i name="TEEND">      0.00010000</i>
   <i type="int" name="NBLOCK">     1</i>
   <i type="int" name="KBLOCK">   100</i>
   <i type="int" name="NPACO">   256</i>
   <i name="APACO">     16.00000000</i>
  </separator>
  <separator name="symmetry" >
   <i type="int" name="ISYM">     2</i>
   <i name="SYMPREC">      0.00001000</i>
  </separator>
  <separator name="dos" >
   <i type="int" name="LORBIT">     0</i>
   <v name="RWIGS">     -1.00000000     -1.00000000     -1.00000000</v>
   <i type="int" name="NEDOS">   301</i>
   <i name="EMIN">     10.00000000</i>
   <i name="EMAX">    -10.00000000</i>
   <i name="EFERMI">      0.00000000</i>
  </separator>
  <separator name="writing" >
   <i type="int" name="NWRITE">     2</i>
   <i type="logical" name="LWAVE"> F  </i>
   <i type="logical" name="LDOWNSAMPLE"> F  </i>
   <i type="logical" name="LCHARG"> F  </i>
   <i type="logical" name="LPARD"> F  </i>
   <i type="logical" name="LVTOT"> F  </i>
   <i type="logical" name="LVHAR"> F  </i>
   <i type="logical" name="LELF"> F  </i>
   <i type="logical" name="LOPTICS"> F  </i>
   <v name="STM">      0.00000000      0.00000000      0.00000000      0.00000000      0.00000000      0.00000000      0.00000000</v>
  </separator>
  <separator name="performance" >
   <i type="int" name="NPAR">     1</i>
   <i type="int" name="NSIM">     4</i>
   <i type="int" name="NBLK">    -1</i>
   <i type="logical" name="LPLANE"> T  </i>
   <i type="logical" name="LSCALAPACK"> T  </i>
   <i type="logical" name="LSCAAWARE"> F  </i>
   <i type="logical" name="LSCALU"> F  </i>
   <i type="logical" name="LASYNC"> F  </i>
   <i type="logical" name="LORBITALREAL"> F  </i>
  </separator>
  <separator name="miscellaneous" >
   <i type="int" name="IDIOT">     3</i>
   <i type="int" name="ISPECIAL">     0</i>
   <i type="logical" name="LMUSIC"> F  </i>
   <v name="POMASS">      7.01000000     22.99000000    121.75000000</v>
   <v name="DARWINR">      0.00000000      0.00000000      0.00000000</v>
   <v name="DARWINV">      1.00000000      1.00000000      1.00000000</v>
   <i type="logical" name="LCORR"> T  </i>
  </separator>
  <i type="logical" name="GGA_COMPAT"> T  </i>
  <i type="logical" name="LBERRY"> F  </i>
  <i type="int" name="ICORELEVEL">     0</i>
  <i type="logical" name="LDAU"> F  </i>
  <i type="int" name="I_CONSTRAINED_M">     0</i>
  <separator name="electronic exchange-correlation" >
   <i type="string" name="GGA">PE</i>
   <i type="int" name="VOSKOWN">     0</i>
   <i type="logical" name="LHFCALC"> F  </i>
   <i type="string" name="PRECFOCK"></i>
   <i type="logical" name="LSYMGRAD"> F  </i>
   <i type="logical" name="LHFONE"> F  </i>
   <i type="logical" name="LRHFCALC"> F  </i>
   <i type="logical" name="LTHOMAS"> F  </i>
   <i type="logical" name="LMODELHF"> F  </i>
   <i name="ENCUT4O">     -1.00000000</i>
   <i type="int" name="EXXOEP">     0</i>
   <i type="int" name="FOURORBIT">     0</i>
   <i name="AEXX">      0.00000000</i>
   <i name="HFALPHA">      0.00000000</i>
   <i name="MCALPHA">      0.00000000</i>
   <i name="ALDAX">      1.00000000</i>
   <i name="AGGAX">      1.00000000</i>
   <i name="ALDAC">      1.00000000</i>
   <i name="AGGAC">      1.00000000</i>
   <i type="int" name="NKREDX">     1</i>
   <i type="int" name="NKREDY">     1</i>
   <i type="int" name="NKREDZ">     1</i>
   <i type="logical" name="SHIFTRED"> F  </i>
   <i type="logical" name="ODDONLY"> F  </i>
   <i type="logical" name="EVENONLY"> F  </i>
   <i type="int" name="LMAXFOCK">     0</i>
   <i type="int" name="NMAXFOCKAE">     0</i>
   <i type="logical" name="LFOCKAEDFT"> F  </i>
   <i name="HFSCREEN">      0.00000000</i>
   <i name="HFSCREENC">      0.00000000</i>
   <i type="int" name="NBANDSGWLOW">     0</i>
  </separator>
  <separator name="vdW DFT" >
   <i type="logical" name="LUSE_VDW"> F  </i>
   <i name="Zab_VDW">     -0.84910000</i>
   <i name="PARAM1">      0.12340000</i>
   <i name="PARAM2">      1.00000000</i>
   <i name="PARAM3">      0.00000000</i>
  </separator>
  <separator name="model GW" >
   <i type="int" name="MODEL_GW">     0</i>
   <i name="MODEL_EPS0">     11.56489902</i>
   <i name="MODEL_ALPHA">      1.00000000</i>
  </separator>
  <separator name="linear response parameters" >
   <i type="logical" name="LEPSILON"> F  </i>
   <i type="logical" name="LRPA"> F  </i>
   <i type="logical" name="LNABLA"> F  </i>
   <i type="logical" name="LVEL"> F  </i>
   <i type="int" name="KINTER">     0</i>
   <i name="CSHIFT">      0.10000000</i>
   <i name="OMEGAMAX">     -1.00000000</i>
   <i name="DEG_THRESHOLD">      0.00200000</i>
   <i name="RTIME">     -0.10000000</i>
   <i name="WPLASMAI">      0.00000000</i>
   <v name="DFIELD">      0.00000000      0.00000000      0.00000000</v>
   <v name="WPLASMA">      0.00000000      0.00000000      0.00000000      0.00000000      0.00000000      0.00000000      0.00000000      0.00000000      0.00000000</v>
  </separator>
  <separator name="orbital magnetization" >
   <i type="logical" name="NUCIND"> F  </i>
   <v name="MAGPOS">      0.00000000      0.00000000      0.00000000</v>
   <i type="logical" name="LNICSALL"> T  </i>
   <i type="logical" name="ORBITALMAG"> F  </i>
   <i type="logical" name="LMAGBLOCH"> F  </i>
   <i type="logical" name="LCHIMAG"> F  </i>
   <i type="logical" name="LGAUGE"> T  </i>
   <i type="int" name="MAGATOM">     0</i>
   <v name="MAGDIPOL">      0.00000000      0.00000000      0.00000000</v>
   <v name="AVECCONST">      0.00000000      0.00000000      0.00000000</v>
  </separator>
  <separator name="response functions" >
   <i type="logical" name="LADDER"> F  </i>
   <i type="logical" name="LRPAFORCE"> F  </i>
   <i type="logical" name="LFXC"> F  </i>
   <i type="logical" name="LHARTREE"> T  </i>
   <i type="int" name="IBSE">     0</i>
   <v type="int" name="KPOINT">    -1     0     0     0</v>
   <i type="logical" name="LTCTE"> F  </i>
   <i type="logical" name="LTETE"> F  </i>
   <i type="logical" name="LTRIPLET"> F  </i>
   <i type="logical" name="LFXCEPS"> F  </i>
   <i type="logical" name="LFXHEG"> F  </i>
   <i type="int" name="NATURALO">     2</i>
   <i type="logical" name="L2ORDER"> F  </i>
   <i type="logical" name="LMP2LT"> F  </i>
   <i type="logical" name="LUSEW"> F  </i>
   <i name="ENCUTGW">     -2.00000000</i>
   <i name="ENCUTGWSOFT">     -2.00000000</i>
   <i name="ENCUTLF">     -1.00000000</i>
   <i type="int" name="LMAXMP2">    -1</i>
   <i name="SCISSOR">      0.00000000</i>
   <i type="int" name="NOMEGA">     0</i>
   <i type="int" name="NOMEGAR">     0</i>
   <i type="int" name="NBANDSGW">    -1</i>
   <i type="int" name="NBANDSO">    -1</i>
   <i type="int" name="NBANDSV">    -1</i>
   <i type="int" name="NELM">     1</i>
   <i type="int" name="NELMHF">     1</i>
   <i type="int" name="DIM">     3</i>
   <i type="int" name="ANTIRES">     0</i>
   <i name="OMEGAMAX">    -30.00000000</i>
   <i name="OMEGAMIN">    -30.00000000</i>
   <i name="OMEGATL">   -200.00000000</i>
   <i type="int" name="OMEGAGRID">   140</i>
   <i name="CSHIFT">     -0.10000000</i>
   <i type="logical" name="SELFENERGY"> F  </i>
   <i type="logical" name="LSPECTRAL"> F  </i>
   <i type="logical" name="LSPECTRALGW"> F  </i>
   <i type="logical" name="LSINGLES"> F  </i>
   <i type="logical" name="LFERMIGW"> F  </i>
   <i type="logical" name="ODDONLYGW"> F  </i>
   <i type="logical" name="EVENONLYGW"> F  </i>
   <i type="int" name="NKREDLFX">     1</i>
   <i type="int" name="NKREDLFY">     1</i>
   <i type="int" name="NKREDLFZ">     1</i>
   <i type="int" name="MAXMEM">  2800</i>
   <i type="int" name="TELESCOPE">     0</i>
   <i type="int" name="TAUPAR">     1</i>
   <i type="int" name="OMEGAPAR">    -1</i>
   <i name="LAMBDA">      1.00000000</i>
  </separator>
  <separator name="External order field" >
   <i name="OFIELD_KAPPA">      0.00000000</i>
   <v name="OFIELD_K">      0.00000000      0.00000000      0.00000000</v>
   <i name="OFIELD_Q6_NEAR">      0.00000000</i>
   <i name="OFIELD_Q6_FAR">      0.00000000</i>
   <i name="OFIELD_A">      0.00000000</i>
  </separator>
 </parameters>
 <atominfo>
  <atoms>       4 </atoms>
  <types>       3 </types>
  <array name="atoms" >
   <dimension dim="1">ion</dimension>
   <field type="string">element</field>
   <field type="int">atomtype</field>
   <set>
    <rc><c>Li</c><c>   1</c></rc>
    <rc><c>Li</c><c>   1</c></rc>
    <rc><c>Na</c><c>   2</c></rc>
    <rc><c>Sb</c><c>   3</c></rc>
   </set>
  </array>
  <array name="atomtypes" >
   <dimension dim="1">type</dimension>
   <field type="int">atomspertype</field>
   <field type="string">element</field>
   <field>mass</field>
   <field>valence</field>
   <field type="string">pseudopotential</field>
   <set>
    <rc><c>   2</c><c>Li</c><c>      7.01000000</c><c>      3.00000000</c><c>  PAW_PBE Li_sv 10Sep2004               </c></rc>
    <rc><c>   1</c><c>Na</c><c>     22.99000000</c><c>      7.00000000</c><c>  PAW_PBE Na_pv 19Sep2006               </c></rc>
    <rc><c>   1</c><c>Sb</c><c>    121.75000000</c><c>      5.00000000</c><c>  PAW_PBE Sb 06Sep2000                  </c></rc>
   </set>
  </array>
 </atominfo>
 <structure name="initialpos" >
  <crystal>
   <varray name="basis" >
    <v>       3.37810800      -3.37810800       0.00000000 </v>
    <v>      -3.37810800       0.00000000      -3.37810800 </v>
    <v>       3.37810800       3.37810800       0.00000000 </v>
   </varray>
   <i name="volume">     77.09932679 </i>
   <varray name="rec_basis" >
    <v>       0.14801185      -0.14801185      -0.14801185 </v>
    <v>       0.00000000       0.00000000      -0.29602369 </v>
    <v>       0.14801185       0.14801185      -0.14801185 </v>
   </varray>
  </crystal>
  <varray name="positions" >
   <v>       0.74999822       0.49999882       0.24999941 </v>
   <v>       0.24999941       0.49999882       0.74999822 </v>
   <v>       0.50000030       0.00000000       0.50000030 </v>
   <v>       0.00000000       0.00000000       0.00000000 </v>
  </varray>
 </structure>
 <calculation>
  <scstep>
   <time name="dav">    0.10    0.10</time>
   <time name="total">    0.14    0.14</time>
   <energy>
    <i name="alphaZ">     10.96907945 </i>
    <i name="ewald">   -674.76340655 </i>
    <i name="hartreedc">   -323.42246500 </i>
    <i name="XCdc">      3.58653423 </i>
    <i name="pawpsdc">    825.55058042 </i>
    <i name="pawaedc">   -890.97831796 </i>
    <i name="eentropy">     -0.00437345 </i>
    <i name="bandstr">   -179.58213156 </i>
    <i name="atom">   1321.53873213 </i>
    <i name="e_fr_energy">     92.89423169 </i>
    <i name="e_wo_entrp">     92.89860515 </i>
    <i name="e_0_energy">     92.89641842 </i>
   </energy>
  </scstep>
  <scstep>
   <time name="dav">    0.09    0.10</time>
   <time name="total">    0.09    0.10</time>
   <energy>
    <i name="e_fr_energy">     -0.53471455 </i>
    <i name="e_wo_entrp">     -0.53425357 </i>
    <i name="e_0_energy">     -0.53448406 </i>
   </energy>
  </scstep>
  <scstep>
   <time name="dav">    0.14    0.14</time>
   <time name="total">    0.14    0.14</time>
   <energy>
    <i name="e_fr_energy">    -11.22349515 </i>
    <i name="e_wo_entrp">    -11.22349515 </i>
    <i name="e_0_energy">    -11.22349515 </i>
   </energy>
  </scstep>
  <scstep>
   <time name="dav">    0.11    0.11</time>
   <time name="total">    0.11    0.11</time>
   <energy>
    <i name="e_fr_energy">    -11.72431746 </i>
    <i name="e_wo_entrp">    -11.72431746 </i>
    <i name="e_0_energy">    -11.72431746 </i>
   </energy>
  </scstep>
  <scstep>
   <time name="dav">    0.13    0.13</time>
   <time name="total">    0.15    0.15</time>
   <energy>
    <i name="e_fr_energy">    -11.77098353 </i>
    <i name="e_wo_entrp">    -11.77098353 </i>
    <i name="e_0_energy">    -11.77098353 </i>
   </energy>
  </scstep>
  <scstep>
   <time name="dav">    0.10    0.10</time>
   <time name="total">    0.16    0.16</time>
   <energy>
    <i name="e_fr_energy">    -11.63159197 </i>
    <i name="e_wo_entrp">    -11.63159197 </i>
    <i name="e_0_energy">    -11.63159197 </i>
   </energy>
  </scstep>
  <scstep>
   <time name="dav">    0.11    0.11</time>
   <time name="total">    0.17    0.17</time>
   <energy>
    <i name="e_fr_energy">    -11.58301785 </i>
    <i name="e_wo_entrp">    -11.58301785 </i>
    <i name="e_0_energy">    -11.58301785 </i>
   </energy>
  </scstep>
  <scstep>
   <time name="dav">    0.10    0.10</time>
   <time name="total">    0.15    0.15</time>
   <energy>
    <i name="e_fr_energy">    -11.58000058 </i>
    <i name="e_wo_entrp">    -11.58000058 </i>
    <i name="e_0_energy">    -11.58000058 </i>
   </energy>
  </scstep>
  <scstep>
   <time name="dav">    0.12    0.12</time>
   <time name="total">    0.17    0.17</time>
   <energy>
    <i name="e_fr_energy">    -11.57998439 </i>
    <i name="e_wo_entrp">    -11.57998439 </i>
    <i name="e_0_energy">    -11.57998439 </i>
   </energy>
  </scstep>
  <scstep>
   <time name="dav">    0.11    0.11</time>
   <time name="total">    0.17    0.17</time>
   <energy>
    <i name="e_fr_energy">    -11.57995631 </i>
    <i name="e_wo_entrp">    -11.57995631 </i>
    <i name="e_0_energy">    -11.57995631 </i>
   </energy>
  </scstep>
  <scstep>
   <time name="dav">    0.08    0.08</time>
   <time name="total">    0.12    0.13</time>
   <energy>
    <i name="alphaZ">     10.96907945 </i>
    <i name="ewald">   -674.76340655 </i>
    <i name="hartreedc">   -315.04328724 </i>
    <i name="XCdc">      3.75115272 </i>
    <i name="pawpsdc">   1033.12872850 </i>
    <i name="pawaedc">  -1099.47045392 </i>
    <i name="eentropy">     -0.00000000 </i>
    <i name="bandstr">   -291.69050248 </i>
    <i name="atom">   1321.53873213 </i>
    <i name="e_fr_energy">    -11.57995739 </i>
    <i name="e_wo_entrp">    -11.57995739 </i>
    <i name="e_0_energy">    -11.57995739 </i>
   </energy>
  </scstep>
  <structure>
   <crystal>
    <varray name="basis" >
     <v>       3.37810800      -3.37810800       0.00000000 </v>
     <v>      -3.37810800       0.00000000      -3.37810800 </v>
     <v>       3.37810800       3.37810800       0.00000000 </v>
    </varray>
    <i name="volume">     77.09932679 </i>
    <varray name="rec_basis" >
     <v>       0.14801185      -0.14801185      -0.14801185 </v>
     <v>       0.00000000       0.00000000      -0.29602369 </v>
     <v>       0.14801185       0.14801185      -0.14801185 </v>
    </varray>
   </crystal>
   <varray name="positions" >
    <v>       0.74999822       0.49999882       0.24999941 </v>
    <v>       0.24999941       0.49999882       0.74999822 </v>
    <v>       0.50000030       0.00000000       0.50000030 </v>
    <v>       0.00000000       0.00000000       0.00000000 </v>
   </varray>
  </structure>
  <varray name="forces" >
   <v>       0.00000000       0.00000000      -0.00000000 </v>
   <v>      -0.00000000       0.00000000       0.00000000 </v>
   <v>      -0.00000000      -0.00000000       0.00000000 </v>
   <v>      -0.00000000      -0.00000000       0.00000000 </v>
  </varray>
  <varray name="stress" >
   <v>      11.72431729      -0.00000000      -0.00000000 </v>
   <v>       0.00000000      11.72431729      -0.00000000 </v>
   <v>      -0.00000000       0.00000000      11.72431729 </v>
  </varray>
  <energy>
   <i name="e_fr_energy">    -11.57995739 </i>
   <i name="e_wo_entrp">    -11.57995739 </i>
   <i name="e_0_energy">     -0.00000000 </i>
  </energy>
  <time name="totalsc">    1.81    1.83</time>
 </calculation>
 <calculation>
  <scstep>
   <time name="dav">    0.10    0.11</time>
   <time name="total">    0.16    0.17</time>
   <energy>
    <i name="alphaZ">     10.74817395 </i>
    <i name="ewald">   -670.20298358 </i>
    <i name="hartreedc">   -312.91385263 </i>
    <i name="XCdc">      3.35735361 </i>
    <i name="pawpsdc">   1033.04004422 </i>
    <i name="pawaedc">  -1099.38230131 </i>
    <i name="eentropy">     -0.00000000 </i>
    <i name="bandstr">   -297.79563342 </i>
    <i name="atom">   1321.53873213 </i>
    <i name="e_fr_energy">    -11.61046703 </i>
    <i name="e_wo_entrp">    -11.61046703 </i>
    <i name="e_0_energy">    -11.61046703 </i>
   </energy>
  </scstep>
  <scstep>
   <time name="dav">    0.12    0.12</time>
   <time name="total">    0.17    0.17</time>
   <energy>
    <i name="e_fr_energy">    -11.59423683 </i>
    <i name="e_wo_entrp">    -11.59423683 </i>
    <i name="e_0_energy">    -11.59423683 </i>
   </energy>
  </scstep>
  <scstep>
   <time name="dav">    0.10    0.10</time>
   <time name="total">    0.16    0.16</time>
   <energy>
    <i name="e_fr_energy">    -11.58837959 </i>
    <i name="e_wo_entrp">    -11.58837959 </i>
    <i name="e_0_energy">    -11.58837959 </i>
   </energy>
  </scstep>
  <scstep>
   <time name="dav">    0.12    0.12</time>
   <time name="total">    0.17    0.17</time>
   <energy>
    <i name="e_fr_energy">    -11.58813350 </i>
    <i name="e_wo_entrp">    -11.58813350 </i>
    <i name="e_0_energy">    -11.58813350 </i>
   </energy>
  </scstep>
  <scstep>
   <time name="dav">    0.14    0.14</time>
   <time name="total">    0.19    0.19</time>
   <energy>
    <i name="e_fr_energy">    -11.58805422 </i>
    <i name="e_wo_entrp">    -11.58805422 </i>
    <i name="e_0_energy">    -11.58805422 </i>
   </energy>
  </scstep>
  <scstep>
   <time name="dav">    0.07    0.07</time>
   <time name="total">    0.11    0.11</time>
   <energy>
    <i name="alphaZ">     10.74817395 </i>
    <i name="ewald">   -670.20298358 </i>
    <i name="hartreedc">   -316.91445511 </i>
    <i name="XCdc">      3.66870645 </i>
    <i name="pawpsdc">   1024.10779986 </i>
    <i name="pawaedc">  -1090.45039314 </i>
    <i name="eentropy">     -0.00000000 </i>
    <i name="bandstr">   -294.08363303 </i>
    <i name="atom">   1321.53873213 </i>
    <i name="e_fr_energy">    -11.58805247 </i>
    <i name="e_wo_entrp">    -11.58805247 </i>
    <i name="e_0_energy">    -11.58805247 </i>
   </energy>
  </scstep>
  <structure>
   <crystal>
    <varray name="basis" >
     <v>       3.40109447      -3.40109447      -0.00000000 </v>
     <v>      -3.40109447      -0.00000000      -3.40109447 </v>
     <v>       3.40109447       3.40109447      -0.00000000 </v>
    </varray>
    <i name="volume">     78.68393694 </i>
    <varray name="rec_basis" >
     <v>       0.14701150      -0.14701150      -0.14701150 </v>
     <v>      -0.00000000      -0.00000000      -0.29402300 </v>
     <v>       0.14701150       0.14701150      -0.14701150 </v>
    </varray>
   </crystal>
   <varray name="positions" >
    <v>       0.74999822       0.49999882       0.24999941 </v>
    <v>       0.24999941       0.49999882       0.74999822 </v>
    <v>       0.50000030       0.00000000       0.50000030 </v>
    <v>       0.00000000       0.00000000      -0.00000000 </v>
   </varray>
  </structure>
  <varray name="forces" >
   <v>       0.00000000       0.00000000       0.00000000 </v>
   <v>       0.00000000      -0.00000000      -0.00000000 </v>
   <v>      -0.00000000      -0.00000000       0.00000000 </v>
   <v>      -0.00000000      -0.00000000      -0.00000000 </v>
  </varray>
  <varray name="stress" >
   <v>       4.47980837       0.00000000       0.00000000 </v>
   <v>      -0.00000000       4.47980837      -0.00000000 </v>
   <v>       0.00000000       0.00000000       4.47980837 </v>
  </varray>
  <energy>
   <i name="e_fr_energy">    -11.58805247 </i>
   <i name="e_wo_entrp">    -11.58805247 </i>
   <i name="e_0_energy">     -0.00000000 </i>
  </energy>
  <time name="totalsc">    1.19    1.21</time>
 </calculation>
 <calculation>
  <scstep>
   <time name="dav">    0.10    0.10</time>
   <time name="total">    0.16    0.16</time>
   <energy>
    <i name="alphaZ">     10.62495568 </i>
    <i name="ewald">   -667.63203978 </i>
    <i name="hartreedc">   -315.70324822 </i>
    <i name="XCdc">      3.44484440 </i>
    <i name="pawpsdc">   1024.41197425 </i>
    <i name="pawaedc">  -1090.74335264 </i>
    <i name="eentropy">     -0.00000000 </i>
    <i name="bandstr">   -297.53890400 </i>
    <i name="atom">   1321.53873213 </i>
    <i name="e_fr_energy">    -11.59703818 </i>
    <i name="e_wo_entrp">    -11.59703818 </i>
    <i name="e_0_energy">    -11.59703818 </i>
   </energy>
  </scstep>
  <scstep>
   <time name="dav">    0.12    0.12</time>
   <time name="total">    0.17    0.17</time>
   <energy>
    <i name="e_fr_energy">    -11.59177139 </i>
    <i name="e_wo_entrp">    -11.59177139 </i>
    <i name="e_0_energy">    -11.59177139 </i>
   </energy>
  </scstep>
  <scstep>
   <time name="dav">    0.11    0.11</time>
   <time name="total">    0.16    0.16</time>
   <energy>
    <i name="e_fr_energy">    -11.58989740 </i>
    <i name="e_wo_entrp">    -11.58989740 </i>
    <i name="e_0_energy">    -11.58989740 </i>
   </energy>
  </scstep>
  <scstep>
   <time name="dav">    0.12    0.12</time>
   <time name="total">    0.17    0.17</time>
   <energy>
    <i name="e_fr_energy">    -11.58981695 </i>
    <i name="e_wo_entrp">    -11.58981695 </i>
    <i name="e_0_energy">    -11.58981695 </i>
   </energy>
  </scstep>
  <scstep>
   <time name="dav">    0.11    0.11</time>
   <time name="total">    0.16    0.16</time>
   <energy>
    <i name="e_fr_energy">    -11.58978993 </i>
    <i name="e_wo_entrp">    -11.58978993 </i>
    <i name="e_0_energy">    -11.58978993 </i>
   </energy>
  </scstep>
  <scstep>
   <time name="dav">    0.06    0.06</time>
   <time name="total">    0.10    0.10</time>
   <energy>
    <i name="alphaZ">     10.62495568 </i>
    <i name="ewald">   -667.63203978 </i>
    <i name="hartreedc">   -317.98392733 </i>
    <i name="XCdc">      3.62236889 </i>
    <i name="pawpsdc">   1019.46514188 </i>
    <i name="pawaedc">  -1085.79758376 </i>
    <i name="eentropy">     -0.00000000 </i>
    <i name="bandstr">   -295.42743718 </i>
    <i name="atom">   1321.53873213 </i>
    <i name="e_fr_energy">    -11.58978948 </i>
    <i name="e_wo_entrp">    -11.58978948 </i>
    <i name="e_0_energy">    -11.58978948 </i>
   </energy>
  </scstep>
  <structure>
   <crystal>
    <varray name="basis" >
     <v>       3.41419154      -3.41419154      -0.00000000 </v>
     <v>      -3.41419154      -0.00000000      -3.41419154 </v>
     <v>       3.41419154       3.41419154      -0.00000000 </v>
    </varray>
    <i name="volume">     79.59643946 </i>
    <varray name="rec_basis" >
     <v>       0.14644755      -0.14644755      -0.14644755 </v>
     <v>      -0.00000000      -0.00000000      -0.29289511 </v>
     <v>       0.14644755       0.14644755      -0.14644755 </v>
    </varray>
   </crystal>
   <varray name="positions" >
    <v>       0.74999822       0.49999882       0.24999941 </v>
    <v>       0.24999941       0.49999882       0.74999822 </v>
    <v>       0.50000030       0.00000000       0.50000030 </v>
    <v>       0.00000000       0.00000000      -0.00000000 </v>
   </varray>
  </structure>
  <varray name="forces" >
   <v>       0.00000000      -0.00000000       0.00000000 </v>
   <v>      -0.00000000       0.00000000      -0.00000000 </v>
   <v>       0.00000000       0.00000000      -0.00000000 </v>
   <v>       0.00000000       0.00000000      -0.00000000 </v>
  </varray>
  <varray name="stress" >
   <v>       1.10646406       0.00000000      -0.00000000 </v>
   <v>       0.00000000       1.10646406      -0.00000000 </v>
   <v>       0.00000000       0.00000000       1.10646406 </v>
  </varray>
  <energy>
   <i name="e_fr_energy">    -11.58978948 </i>
   <i name="e_wo_entrp">    -11.58978948 </i>
   <i name="e_0_energy">     -0.00000000 </i>
  </energy>
  <time name="totalsc">    1.16    1.17</time>
 </calculation>
 <calculation>
  <scstep>
   <time name="dav">    0.10    0.10</time>
   <time name="total">    0.16    0.16</time>
   <energy>
    <i name="alphaZ">     10.58433332 </i>
    <i name="ewald">   -666.78010137 </i>
    <i name="hartreedc">   -317.58058400 </i>
    <i name="XCdc">      3.54788255 </i>
    <i name="pawpsdc">   1019.55171562 </i>
    <i name="pawaedc">  -1085.87986631 </i>
    <i name="eentropy">     -0.00000000 </i>
    <i name="bandstr">   -296.57283501 </i>
    <i name="atom">   1321.53873213 </i>
    <i name="e_fr_energy">    -11.59072305 </i>
    <i name="e_wo_entrp">    -11.59072305 </i>
    <i name="e_0_energy">    -11.59072305 </i>
   </energy>
  </scstep>
  <scstep>
   <time name="dav">    0.11    0.11</time>
   <time name="total">    0.17    0.17</time>
   <energy>
    <i name="e_fr_energy">    -11.59013722 </i>
    <i name="e_wo_entrp">    -11.59013722 </i>
    <i name="e_0_energy">    -11.59013722 </i>
   </energy>
  </scstep>
  <scstep>
   <time name="dav">    0.10    0.10</time>
   <time name="total">    0.16    0.16</time>
   <energy>
    <i name="e_fr_energy">    -11.58993197 </i>
    <i name="e_wo_entrp">    -11.58993197 </i>
    <i name="e_0_energy">    -11.58993197 </i>
   </energy>
  </scstep>
  <scstep>
   <time name="dav">    0.08    0.08</time>
   <time name="total">    0.13    0.13</time>
   <energy>
    <i name="e_fr_energy">    -11.58992261 </i>
    <i name="e_wo_entrp">    -11.58992261 </i>
    <i name="e_0_energy">    -11.58992261 </i>
   </energy>
  </scstep>
  <scstep>
   <time name="dav">    0.06    0.06</time>
   <time name="total">    0.10    0.10</time>
   <energy>
    <i name="alphaZ">     10.58433332 </i>
    <i name="ewald">   -666.78010137 </i>
    <i name="hartreedc">   -318.34618597 </i>
    <i name="XCdc">      3.60746235 </i>
    <i name="pawpsdc">   1017.85149361 </i>
    <i name="pawaedc">  -1084.17816246 </i>
    <i name="eentropy">     -0.00000000 </i>
    <i name="bandstr">   -295.86749029 </i>
    <i name="atom">   1321.53873213 </i>
    <i name="e_fr_energy">    -11.58991867 </i>
    <i name="e_wo_entrp">    -11.58991867 </i>
    <i name="e_0_energy">    -11.58991867 </i>
   </energy>
  </scstep>
  <structure>
   <crystal>
    <varray name="basis" >
     <v>       3.41855382      -3.41855382      -0.00000000 </v>
     <v>      -3.41855382      -0.00000000      -3.41855382 </v>
     <v>       3.41855382       3.41855382      -0.00000000 </v>
    </varray>
    <i name="volume">     79.90192822 </i>
    <varray name="rec_basis" >
     <v>       0.14626068      -0.14626068      -0.14626068 </v>
     <v>      -0.00000000      -0.00000000      -0.29252136 </v>
     <v>       0.14626068       0.14626068      -0.14626068 </v>
    </varray>
   </crystal>
   <varray name="positions" >
    <v>       0.74999822       0.49999882       0.24999941 </v>
    <v>       0.24999941       0.49999882       0.74999822 </v>
    <v>       0.50000030       0.00000000       0.50000030 </v>
    <v>       0.00000000       0.00000000      -0.00000000 </v>
   </varray>
  </structure>
  <varray name="forces" >
   <v>       0.00000000      -0.00000000      -0.00000000 </v>
   <v>      -0.00000000       0.00000000       0.00000000 </v>
   <v>       0.00000000       0.00000000       0.00000000 </v>
   <v>       0.00000000       0.00000000      -0.00000000 </v>
  </varray>
  <varray name="stress" >
   <v>       0.13912494      -0.00000000       0.00000000 </v>
   <v>       0.00000000       0.13912494       0.00000000 </v>
   <v>       0.00000000       0.00000000       0.13912494 </v>
  </varray>
  <energy>
   <i name="e_fr_energy">    -11.58991867 </i>
   <i name="e_wo_entrp">    -11.58991867 </i>
   <i name="e_0_energy">     -0.00000000 </i>
  </energy>
  <time name="totalsc">    0.95    0.96</time>
 </calculation>
 <calculation>
  <scstep>
   <time name="dav">    0.10    0.10</time>
   <time name="total">    0.16    0.16</time>
   <energy>
    <i name="alphaZ">     10.57829193 </i>
    <i name="ewald">   -666.65321426 </i>
    <i name="hartreedc">   -318.28124943 </i>
    <i name="XCdc">      3.59604448 </i>
    <i name="pawpsdc">   1017.92531502 </i>
    <i name="pawaedc">  -1084.25396676 </i>
    <i name="eentropy">     -0.00000000 </i>
    <i name="bandstr">   -296.03989040 </i>
    <i name="atom">   1321.53873213 </i>
    <i name="e_fr_energy">    -11.58993730 </i>
    <i name="e_wo_entrp">    -11.58993730 </i>
    <i name="e_0_energy">    -11.58993730 </i>
   </energy>
  </scstep>
  <scstep>
   <time name="dav">    0.07    0.07</time>
   <time name="total">    0.12    0.12</time>
   <energy>
    <i name="e_fr_energy">    -11.58992365 </i>
    <i name="e_wo_entrp">    -11.58992365 </i>
    <i name="e_0_energy">    -11.58992365 </i>
   </energy>
  </scstep>
  <scstep>
   <time name="dav">    0.06    0.06</time>
   <time name="total">    0.12    0.12</time>
   <energy>
    <i name="e_fr_energy">    -11.58992011 </i>
    <i name="e_wo_entrp">    -11.58992011 </i>
    <i name="e_0_energy">    -11.58992011 </i>
   </energy>
  </scstep>
  <scstep>
   <time name="dav">    0.06    0.06</time>
   <time name="total">    0.11    0.12</time>
   <energy>
    <i name="e_fr_energy">    -11.58991994 </i>
    <i name="e_wo_entrp">    -11.58991994 </i>
    <i name="e_0_energy">    -11.58991994 </i>
   </energy>
  </scstep>
  <scstep>
   <time name="dav">    0.06    0.06</time>
   <time name="total">    0.10    0.10</time>
   <energy>
    <i name="alphaZ">     10.57829193 </i>
    <i name="ewald">   -666.65321426 </i>
    <i name="hartreedc">   -318.39282451 </i>
    <i name="XCdc">      3.60448077 </i>
    <i name="pawpsdc">   1017.68949908 </i>
    <i name="pawaedc">  -1084.01641980 </i>
    <i name="eentropy">     -0.00000000 </i>
    <i name="bandstr">   -295.93846522 </i>
    <i name="atom">   1321.53873213 </i>
    <i name="e_fr_energy">    -11.58991988 </i>
    <i name="e_wo_entrp">    -11.58991988 </i>
    <i name="e_0_energy">    -11.58991988 </i>
   </energy>
  </scstep>
  <structure>
   <crystal>
    <varray name="basis" >
     <v>       3.41920449      -3.41920449      -0.00000000 </v>
     <v>      -3.41920449      -0.00000000      -3.41920449 </v>
     <v>       3.41920449       3.41920449      -0.00000000 </v>
    </varray>
    <i name="volume">     79.94756119 </i>
    <varray name="rec_basis" >
     <v>       0.14623285      -0.14623285      -0.14623285 </v>
     <v>      -0.00000000      -0.00000000      -0.29246569 </v>
     <v>       0.14623285       0.14623285      -0.14623285 </v>
    </varray>
   </crystal>
   <varray name="positions" >
    <v>       0.74999822       0.49999882       0.24999941 </v>
    <v>       0.24999941       0.49999882       0.74999822 </v>
    <v>       0.50000030       0.00000000       0.50000030 </v>
    <v>       0.00000000       0.00000000      -0.00000000 </v>
   </varray>
  </structure>
  <varray name="forces" >
   <v>      -0.00000000       0.00000000       0.00000000 </v>
   <v>       0.00000000      -0.00000000      -0.00000000 </v>
   <v>      -0.00000000      -0.00000000       0.00000000 </v>
   <v>      -0.00000000      -0.00000000      -0.00000000 </v>
  </varray>
  <varray name="stress" >
   <v>      -0.18462152       0.00000000       0.00000000 </v>
   <v>       0.00000000      -0.18462152       0.00000000 </v>
   <v>      -0.00000000      -0.00000000      -0.18462152 </v>
  </varray>
  <energy>
   <i name="e_fr_energy">    -11.58991988 </i>
   <i name="e_wo_entrp">    -11.58991988 </i>
   <i name="e_0_energy">     -0.00000000 </i>
  </energy>
  <time name="totalsc">    0.84    0.85</time>
 </calculation>
 <calculation>
  <scstep>
   <time name="dav">    0.10    0.10</time>
   <time name="total">    0.15    0.15</time>
   <energy>
    <i name="alphaZ">     10.58173741 </i>
    <i name="ewald">   -666.72558547 </i>
    <i name="hartreedc">   -318.42668899 </i>
    <i name="XCdc">      3.61071873 </i>
    <i name="pawpsdc">   1017.73495903 </i>
    <i name="pawaedc">  -1084.06024680 </i>
    <i name="eentropy">     -0.00000000 </i>
    <i name="bandstr">   -295.84355166 </i>
    <i name="atom">   1321.53873213 </i>
    <i name="e_fr_energy">    -11.58992563 </i>
    <i name="e_wo_entrp">    -11.58992563 </i>
    <i name="e_0_energy">    -11.58992563 </i>
   </energy>
  </scstep>
  <scstep>
   <time name="dav">    0.06    0.06</time>
   <time name="total">    0.12    0.12</time>
   <energy>
    <i name="e_fr_energy">    -11.58992177 </i>
    <i name="e_wo_entrp">    -11.58992177 </i>
    <i name="e_0_energy">    -11.58992177 </i>
   </energy>
  </scstep>
  <scstep>
   <time name="dav">    0.06    0.06</time>
   <time name="total">    0.12    0.12</time>
   <energy>
    <i name="e_fr_energy">    -11.58992013 </i>
    <i name="e_wo_entrp">    -11.58992013 </i>
    <i name="e_0_energy">    -11.58992013 </i>
   </energy>
  </scstep>
  <scstep>
   <time name="dav">    0.06    0.06</time>
   <time name="total">    0.12    0.12</time>
   <energy>
    <i name="e_fr_energy">    -11.58992012 </i>
    <i name="e_wo_entrp">    -11.58992012 </i>
    <i name="e_0_energy">    -11.58992012 </i>
   </energy>
  </scstep>
  <scstep>
   <time name="dav">    0.06    0.06</time>
   <time name="total">    0.10    0.10</time>
   <energy>
    <i name="alphaZ">     10.58173741 </i>
    <i name="ewald">   -666.72558547 </i>
    <i name="hartreedc">   -318.36368361 </i>
    <i name="XCdc">      3.60585396 </i>
    <i name="pawpsdc">   1017.89058573 </i>
    <i name="pawaedc">  -1084.21606832 </i>
    <i name="eentropy">     -0.00000000 </i>
    <i name="bandstr">   -295.90149201 </i>
    <i name="atom">   1321.53873213 </i>
    <i name="e_fr_energy">    -11.58992017 </i>
    <i name="e_wo_entrp">    -11.58992017 </i>
    <i name="e_0_energy">    -11.58992017 </i>
   </energy>
  </scstep>
  <structure>
   <crystal>
    <varray name="basis" >
     <v>       3.41883334      -3.41883334      -0.00000000 </v>
     <v>      -3.41883334      -0.00000000      -3.41883334 </v>
     <v>       3.41883334       3.41883334      -0.00000000 </v>
    </varray>
    <i name="volume">     79.92152976 </i>
    <varray name="rec_basis" >
     <v>       0.14624872      -0.14624872      -0.14624872 </v>
     <v>      -0.00000000      -0.00000000      -0.29249744 </v>
     <v>       0.14624872       0.14624872      -0.14624872 </v>
    </varray>
   </crystal>
   <varray name="positions" >
    <v>       0.74999822       0.49999882       0.24999941 </v>
    <v>       0.24999941       0.49999882       0.74999822 </v>
    <v>       0.50000030       0.00000000       0.50000030 </v>
    <v>       0.00000000       0.00000000      -0.00000000 </v>
   </varray>
  </structure>
  <varray name="forces" >
   <v>       0.00000000      -0.00000000      -0.00000000 </v>
   <v>      -0.00000000       0.00000000       0.00000000 </v>
   <v>       0.00000000      -0.00000000       0.00000000 </v>
   <v>       0.00000000      -0.00000000      -0.00000000 </v>
  </varray>
  <varray name="stress" >
   <v>       0.07888803      -0.00000000      -0.00000000 </v>
   <v>       0.00000000       0.07888803      -0.00000000 </v>
   <v>      -0.00000000      -0.00000000       0.07888803 </v>
  </varray>
  <energy>
   <i name="e_fr_energy">    -11.58992017 </i>
   <i name="e_wo_entrp">    -11.58992017 </i>
   <i name="e_0_energy">     -0.00000000 </i>
  </energy>
  <time name="totalsc">    0.81    0.82</time>
  <eigenvalues>
   <array>
    <dimension dim="1">band</dimension>
    <dimension dim="2">kpoint</dimension>
    <dimension dim="3">spin</dimension>
    <field>eigene</field>
    <field>occ</field>
    <set>
     <set comment="spin 1">
      <set comment="kpoint 1">
       <r>  -42.8664    1.0000 </r>
       <r>  -42.8613    1.0000 </r>
       <r>  -20.8363    1.0000 </r>
       <r>  -20.8363    1.0000 </r>
       <r>  -20.8362    1.0000 </r>
       <r>   -5.4218    1.0000 </r>
       <r>    3.5363    1.0000 </r>
       <r>    3.5363    1.0000 </r>
       <r>    3.5363    1.0000 </r>
       <r>    5.1589    0.0000 </r>
       <r>    6.1850    0.0000 </r>
       <r>    6.1850    0.0000 </r>
       <r>    6.1850    0.0000 </r>
      </set>
      <set comment="kpoint 2">
       <r>  -42.8662    1.0000 </r>
       <r>  -42.8615    1.0000 </r>
       <r>  -20.8366    1.0000 </r>
       <r>  -20.8363    1.0000 </r>
       <r>  -20.8363    1.0000 </r>
       <r>   -5.3478    1.0000 </r>
       <r>    2.5690    1.0000 </r>
       <r>    3.3862    1.0000 </r>
       <r>    3.3862    1.0000 </r>
       <r>    5.5838    0.0000 </r>
       <r>    6.4365    0.0000 </r>
       <r>    6.4365    0.0000 </r>
       <r>    6.8765    0.0000 </r>
      </set>
      <set comment="kpoint 3">
       <r>  -42.8656    1.0000 </r>
       <r>  -42.8620    1.0000 </r>
       <r>  -20.8376    1.0000 </r>
       <r>  -20.8364    1.0000 </r>
       <r>  -20.8364    1.0000 </r>
       <r>   -5.1510    1.0000 </r>
       <r>    1.2779    1.0000 </r>
       <r>    3.1063    1.0000 </r>
       <r>    3.1063    1.0000 </r>
       <r>    5.7559    0.0000 </r>
       <r>    6.6816    0.0000 </r>
       <r>    6.6816    0.0000 </r>
       <r>    8.2186    0.0000 </r>
      </set>
      <set comment="kpoint 4">
       <r>  -42.8648    1.0000 </r>
       <r>  -42.8628    1.0000 </r>
       <r>  -20.8385    1.0000 </r>
       <r>  -20.8365    1.0000 </r>
       <r>  -20.8365    1.0000 </r>
       <r>   -4.9196    1.0000 </r>
       <r>    0.3389    1.0000 </r>
       <r>    2.8920    1.0000 </r>
       <r>    2.8921    1.0000 </r>
       <r>    5.8378    0.0000 </r>
       <r>    6.4971    0.0000 </r>
       <r>    6.4971    0.0000 </r>
       <r>    8.8618    0.0000 </r>
      </set>
      <set comment="kpoint 5">
       <r>  -42.8638    1.0000 </r>
       <r>  -42.8638    1.0000 </r>
       <r>  -20.8389    1.0000 </r>
       <r>  -20.8366    1.0000 </r>
       <r>  -20.8366    1.0000 </r>
       <r>   -4.8095    1.0000 </r>
       <r>   -0.0123    1.0000 </r>
       <r>    2.8155    1.0000 </r>
       <r>    2.8155    1.0000 </r>
       <r>    5.8665    0.0000 </r>
       <r>    6.3812    0.0000 </r>
       <r>    6.3812    0.0000 </r>
       <r>    8.9676    0.0000 </r>
      </set>
      <set comment="kpoint 6">
       <r>  -42.8661    1.0000 </r>
       <r>  -42.8615    1.0000 </r>
       <r>  -20.8366    1.0000 </r>
       <r>  -20.8364    1.0000 </r>
       <r>  -20.8364    1.0000 </r>
       <r>   -5.3237    1.0000 </r>
       <r>    2.6977    1.0000 </r>
       <r>    3.0903    1.0000 </r>
       <r>    3.0903    1.0000 </r>
       <r>    5.9795    0.0000 </r>
       <r>    6.1641    0.0000 </r>
       <r>    6.8624    0.0000 </r>
       <r>    6.8624    0.0000 </r>
      </set>
      <set comment="kpoint 7">
       <r>  -42.8657    1.0000 </r>
       <r>  -42.8619    1.0000 </r>
       <r>  -20.8373    1.0000 </r>
       <r>  -20.8366    1.0000 </r>
       <r>  -20.8365    1.0000 </r>
       <r>   -5.1689    1.0000 </r>
       <r>    1.6556    1.0000 </r>
       <r>    2.7682    1.0000 </r>
       <r>    2.9204    1.0000 </r>
       <r>    6.0418    0.0000 </r>
       <r>    6.4441    0.0000 </r>
       <r>    7.1895    0.0000 </r>
       <r>    7.3189    0.0000 </r>
      </set>
      <set comment="kpoint 8">
       <r>  -42.8650    1.0000 </r>
       <r>  -42.8626    1.0000 </r>
       <r>  -20.8382    1.0000 </r>
       <r>  -20.8367    1.0000 </r>
       <r>  -20.8366    1.0000 </r>
       <r>   -4.9467    1.0000 </r>
       <r>    0.6611    1.0000 </r>
       <r>    2.5864    1.0000 </r>
       <r>    2.6414    1.0000 </r>
       <r>    5.9356    0.0000 </r>
       <r>    6.6984    0.0000 </r>
       <r>    7.1794    0.0000 </r>
       <r>    7.7286    0.0000 </r>
      </set>
      <set comment="kpoint 9">
       <r>  -42.8641    1.0000 </r>
       <r>  -42.8635    1.0000 </r>
       <r>  -20.8387    1.0000 </r>
       <r>  -20.8368    1.0000 </r>
       <r>  -20.8367    1.0000 </r>
       <r>   -4.7886    1.0000 </r>
       <r>    0.1305    1.0000 </r>
       <r>    2.3798    1.0000 </r>
       <r>    2.5939    1.0000 </r>
       <r>    5.9384    0.0000 </r>
       <r>    6.6703    0.0000 </r>
       <r>    6.8738    0.0000 </r>
       <r>    8.9968    0.0000 </r>
      </set>
      <set comment="kpoint 10">
       <r>  -42.8644    1.0000 </r>
       <r>  -42.8632    1.0000 </r>
       <r>  -20.8386    1.0000 </r>
       <r>  -20.8369    1.0000 </r>
       <r>  -20.8366    1.0000 </r>
       <r>   -4.8246    1.0000 </r>
       <r>    0.2396    1.0000 </r>
       <r>    2.2606    1.0000 </r>
       <r>    2.7830    1.0000 </r>
       <r>    6.0689    0.0000 </r>
       <r>    6.7017    0.0000 </r>
       <r>    6.7505    0.0000 </r>
       <r>    9.1743    0.0000 </r>
      </set>
      <set comment="kpoint 11">
       <r>  -42.8653    1.0000 </r>
       <r>  -42.8623    1.0000 </r>
       <r>  -20.8379    1.0000 </r>
       <r>  -20.8368    1.0000 </r>
       <r>  -20.8364    1.0000 </r>
       <r>   -5.0222    1.0000 </r>
       <r>    0.9343    1.0000 </r>
       <r>    2.3470    1.0000 </r>
       <r>    3.0956    1.0000 </r>
       <r>    6.1219    0.0000 </r>
       <r>    6.8048    0.0000 </r>
       <r>    6.9410    0.0000 </r>
       <r>    8.0513    0.0000 </r>
      </set>
      <set comment="kpoint 12">
       <r>  -42.8659    1.0000 </r>
       <r>  -42.8617    1.0000 </r>
       <r>  -20.8371    1.0000 </r>
       <r>  -20.8366    1.0000 </r>
       <r>  -20.8363    1.0000 </r>
       <r>   -5.2329    1.0000 </r>
       <r>    1.9015    1.0000 </r>
       <r>    2.7270    1.0000 </r>
       <r>    3.3818    1.0000 </r>
       <r>    5.9354    0.0000 </r>
       <r>    6.5638    0.0000 </r>
       <r>    7.0579    0.0000 </r>
       <r>    7.2619    0.0000 </r>
      </set>
      <set comment="kpoint 13">
       <r>  -42.8655    1.0000 </r>
       <r>  -42.8620    1.0000 </r>
       <r>  -20.8373    1.0000 </r>
       <r>  -20.8368    1.0000 </r>
       <r>  -20.8368    1.0000 </r>
       <r>   -5.0687    1.0000 </r>
       <r>    1.6359    1.0000 </r>
       <r>    2.4005    1.0000 </r>
       <r>    2.4005    1.0000 </r>
       <r>    5.5468    0.0000 </r>
       <r>    6.1171    0.0000 </r>
       <r>    8.1662    0.0000 </r>
       <r>    8.1662    0.0000 </r>
      </set>
      <set comment="kpoint 14">
       <r>  -42.8651    1.0000 </r>
       <r>  -42.8625    1.0000 </r>
       <r>  -20.8379    1.0000 </r>
       <r>  -20.8370    1.0000 </r>
       <r>  -20.8370    1.0000 </r>
       <r>   -4.8921    1.0000 </r>
       <r>    0.9995    1.0000 </r>
       <r>    2.0929    1.0000 </r>
       <r>    2.1866    1.0000 </r>
       <r>    5.2835    0.0000 </r>
       <r>    6.4201    0.0000 </r>
       <r>    8.2049    0.0000 </r>
       <r>    8.4043    0.0000 </r>
      </set>
      <set comment="kpoint 15">
       <r>  -42.8644    1.0000 </r>
       <r>  -42.8632    1.0000 </r>
       <r>  -20.8384    1.0000 </r>
       <r>  -20.8373    1.0000 </r>
       <r>  -20.8370    1.0000 </r>
       <r>   -4.7347    1.0000 </r>
       <r>    0.5034    1.0000 </r>
       <r>    1.6855    1.0000 </r>
       <r>    2.1835    1.0000 </r>
       <r>    5.3855    0.0000 </r>
       <r>    7.4216    0.0000 </r>
       <r>    8.0605    0.0000 </r>
       <r>    8.0821    0.0000 </r>
      </set>
      <set comment="kpoint 16">
       <r>  -42.8639    1.0000 </r>
       <r>  -42.8637    1.0000 </r>
       <r>  -20.8384    1.0000 </r>
       <r>  -20.8375    1.0000 </r>
       <r>  -20.8368    1.0000 </r>
       <r>   -4.7105    1.0000 </r>
       <r>    0.4208    1.0000 </r>
       <r>    1.4367    1.0000 </r>
       <r>    2.3907    1.0000 </r>
       <r>    5.6588    0.0000 </r>
       <r>    7.8168    0.0000 </r>
       <r>    7.8629    0.0000 </r>
       <r>    8.9742    0.0000 </r>
      </set>
      <set comment="kpoint 17">
       <r>  -42.8647    1.0000 </r>
       <r>  -42.8629    1.0000 </r>
       <r>  -20.8381    1.0000 </r>
       <r>  -20.8373    1.0000 </r>
       <r>  -20.8366    1.0000 </r>
       <r>   -4.8395    1.0000 </r>
       <r>    0.6571    1.0000 </r>
       <r>    1.6115    1.0000 </r>
       <r>    2.7522    1.0000 </r>
       <r>    6.0284    0.0000 </r>
       <r>    7.5098    0.0000 </r>
       <r>    7.6937    0.0000 </r>
       <r>    7.8481    0.0000 </r>
      </set>
      <set comment="kpoint 18">
       <r>  -42.8649    1.0000 </r>
       <r>  -42.8626    1.0000 </r>
       <r>  -20.8381    1.0000 </r>
       <r>  -20.8372    1.0000 </r>
       <r>  -20.8372    1.0000 </r>
       <r>   -4.7809    1.0000 </r>
       <r>    0.9004    1.0000 </r>
       <r>    1.9219    1.0000 </r>
       <r>    1.9219    1.0000 </r>
       <r>    4.5820    0.0000 </r>
       <r>    6.0731    0.0000 </r>
       <r>    9.5538    0.0000 </r>
       <r>    9.5538    0.0000 </r>
      </set>
      <set comment="kpoint 19">
       <r>  -42.8646    1.0000 </r>
       <r>  -42.8630    1.0000 </r>
       <r>  -20.8383    1.0000 </r>
       <r>  -20.8375    1.0000 </r>
       <r>  -20.8373    1.0000 </r>
       <r>   -4.6753    1.0000 </r>
       <r>    0.7205    1.0000 </r>
       <r>    1.5057    1.0000 </r>
       <r>    1.8689    1.0000 </r>
       <r>    4.6718    0.0000 </r>
       <r>    6.3703    0.0000 </r>
       <r>    9.6385    0.0000 </r>
       <r>    9.6608    0.0000 </r>
      </set>
      <set comment="kpoint 20">
       <r>  -42.8642    1.0000 </r>
       <r>  -42.8634    1.0000 </r>
       <r>  -20.8381    1.0000 </r>
       <r>  -20.8379    1.0000 </r>
       <r>  -20.8371    1.0000 </r>
       <r>   -4.6452    1.0000 </r>
       <r>    0.8792    1.0000 </r>
       <r>    0.8803    1.0000 </r>
       <r>    2.0384    1.0000 </r>
       <r>    5.1532    0.0000 </r>
       <r>    7.3778    0.0000 </r>
       <r>    9.1446    0.0000 </r>
       <r>    9.2067    0.0000 </r>
      </set>
      <set comment="kpoint 21">
       <r>  -42.8647    1.0000 </r>
       <r>  -42.8629    1.0000 </r>
       <r>  -20.8384    1.0000 </r>
       <r>  -20.8374    1.0000 </r>
       <r>  -20.8374    1.0000 </r>
       <r>   -4.6489    1.0000 </r>
       <r>    0.6328    1.0000 </r>
       <r>    1.7559    1.0000 </r>
       <r>    1.7559    1.0000 </r>
       <r>    4.2177    0.0000 </r>
       <r>    6.0563    0.0000 </r>
       <r>   10.7896    0.0000 </r>
       <r>   10.7896    0.0000 </r>
      </set>
      <set comment="kpoint 22">
       <r>  -42.8653    1.0000 </r>
       <r>  -42.8623    1.0000 </r>
       <r>  -20.8377    1.0000 </r>
       <r>  -20.8370    1.0000 </r>
       <r>  -20.8366    1.0000 </r>
       <r>   -5.0010    1.0000 </r>
       <r>    1.1406    1.0000 </r>
       <r>    2.1191    1.0000 </r>
       <r>    2.7468    1.0000 </r>
       <r>    6.0949    0.0000 </r>
       <r>    6.6560    0.0000 </r>
       <r>    6.9843    0.0000 </r>
       <r>    8.2181    0.0000 </r>
      </set>
      <set comment="kpoint 23">
       <r>  -42.8646    1.0000 </r>
       <r>  -42.8630    1.0000 </r>
       <r>  -20.8383    1.0000 </r>
       <r>  -20.8372    1.0000 </r>
       <r>  -20.8367    1.0000 </r>
       <r>   -4.8093    1.0000 </r>
       <r>    0.5548    1.0000 </r>
       <r>    1.8189    1.0000 </r>
       <r>    2.4324    1.0000 </r>
       <r>    6.1891    0.0000 </r>
       <r>    6.6521    0.0000 </r>
       <r>    7.5447    0.0000 </r>
       <r>    8.2961    0.0000 </r>
      </set>
      <set comment="kpoint 24">
       <r>  -42.8638    1.0000 </r>
       <r>  -42.8638    1.0000 </r>
       <r>  -20.8385    1.0000 </r>
       <r>  -20.8372    1.0000 </r>
       <r>  -20.8368    1.0000 </r>
       <r>   -4.7207    1.0000 </r>
       <r>    0.2990    1.0000 </r>
       <r>    1.7744    1.0000 </r>
       <r>    2.2634    1.0000 </r>
       <r>    6.3224    0.0000 </r>
       <r>    6.3963    0.0000 </r>
       <r>    8.1147    0.0000 </r>
       <r>    9.0622    0.0000 </r>
      </set>
      <set comment="kpoint 25">
       <r>  -42.8647    1.0000 </r>
       <r>  -42.8629    1.0000 </r>
       <r>  -20.8382    1.0000 </r>
       <r>  -20.8374    1.0000 </r>
       <r>  -20.8371    1.0000 </r>
       <r>   -4.7484    1.0000 </r>
       <r>    0.7778    1.0000 </r>
       <r>    1.6805    1.0000 </r>
       <r>    1.8954    1.0000 </r>
       <r>    5.3205    0.0000 </r>
       <r>    6.6186    0.0000 </r>
       <r>    7.9891    0.0000 </r>
       <r>    9.6646    0.0000 </r>
      </set>
      <set comment="kpoint 26">
       <r>  -42.8641    1.0000 </r>
       <r>  -42.8635    1.0000 </r>
       <r>  -20.8382    1.0000 </r>
       <r>  -20.8377    1.0000 </r>
       <r>  -20.8371    1.0000 </r>
       <r>   -4.6571    1.0000 </r>
       <r>    0.6917    1.0000 </r>
       <r>    1.2684    1.0000 </r>
       <r>    1.7795    1.0000 </r>
       <r>    5.7598    0.0000 </r>
       <r>    7.4986    0.0000 </r>
       <r>    7.5797    0.0000 </r>
       <r>    9.2385    0.0000 </r>
      </set>
      <set comment="kpoint 27">
       <r>  -42.8640    1.0000 </r>
       <r>  -42.8635    1.0000 </r>
       <r>  -20.8381    1.0000 </r>
       <r>  -20.8377    1.0000 </r>
       <r>  -20.8370    1.0000 </r>
       <r>   -4.6847    1.0000 </r>
       <r>    0.6434    1.0000 </r>
       <r>    1.2290    1.0000 </r>
       <r>    2.0331    1.0000 </r>
       <r>    6.1994    0.0000 </r>
       <r>    7.0283    0.0000 </r>
       <r>    7.9598    0.0000 </r>
       <r>    9.0185    0.0000 </r>
      </set>
      <set comment="kpoint 28">
       <r>  -42.8644    1.0000 </r>
       <r>  -42.8632    1.0000 </r>
       <r>  -20.8383    1.0000 </r>
       <r>  -20.8375    1.0000 </r>
       <r>  -20.8374    1.0000 </r>
       <r>   -4.6366    1.0000 </r>
       <r>    0.7549    1.0000 </r>
       <r>    1.4593    1.0000 </r>
       <r>    1.5265    1.0000 </r>
       <r>    5.0285    0.0000 </r>
       <r>    6.5993    0.0000 </r>
       <r>    8.9910    0.0000 </r>
       <r>    9.7880    0.0000 </r>
      </set>
      <set comment="kpoint 29">
       <r>  -42.8638    1.0000 </r>
       <r>  -42.8638    1.0000 </r>
       <r>  -20.8379    1.0000 </r>
       <r>  -20.8379    1.0000 </r>
       <r>  -20.8374    1.0000 </r>
       <r>   -4.6242    1.0000 </r>
       <r>    1.0924    1.0000 </r>
       <r>    1.0924    1.0000 </r>
       <r>    1.2344    1.0000 </r>
       <r>    6.6531    0.0000 </r>
       <r>    6.9391    0.0000 </r>
       <r>    7.9643    0.0000 </r>
       <r>    7.9643    0.0000 </r>
      </set>
     </set>
    </set>
   </array>
  </eigenvalues>
  <separator name="orbital magnetization" >
   <v name="MAGDIPOLOUT">      0.00000000      0.00000000      0.00000000</v>
  </separator>
  <dos>
   <i name="efermi">      3.85683741 </i>
   <total>
    <array>
     <dimension dim="1">gridpoints</dimension>
     <dimension dim="2">spin</dimension>
     <field>energy</field>
     <field>total</field>
     <field>integrated</field>
     <set>
      <set comment="spin 1">
       <r>   -45.5492     0.0000     0.0000 </r>
       <r>   -45.3524     0.0000     0.0000 </r>
       <r>   -45.1557     0.0000     0.0000 </r>
       <r>   -44.9590     0.0000     0.0000 </r>
       <r>   -44.7622     0.0000     0.0000 </r>
       <r>   -44.5655     0.0000     0.0000 </r>
       <r>   -44.3687     0.0000     0.0000 </r>
       <r>   -44.1720     0.0000     0.0000 </r>
       <r>   -43.9753     0.0000     0.0000 </r>
       <r>   -43.7785     0.0000     0.0000 </r>
       <r>   -43.5818     0.0000     0.0000 </r>
       <r>   -43.3850     0.0000     0.0000 </r>
       <r>   -43.1883     0.0000     0.0000 </r>
       <r>   -42.9916     0.0031     0.0006 </r>
       <r>   -42.7948    19.8081     3.8976 </r>
       <r>   -42.5981     0.5204     4.0000 </r>
       <r>   -42.4014     0.0000     4.0000 </r>
       <r>   -42.2046     0.0000     4.0000 </r>
       <r>   -42.0079     0.0000     4.0000 </r>
       <r>   -41.8111     0.0000     4.0000 </r>
       <r>   -41.6144     0.0000     4.0000 </r>
       <r>   -41.4177     0.0000     4.0000 </r>
       <r>   -41.2209     0.0000     4.0000 </r>
       <r>   -41.0242     0.0000     4.0000 </r>
       <r>   -40.8274     0.0000     4.0000 </r>
       <r>   -40.6307     0.0000     4.0000 </r>
       <r>   -40.4340     0.0000     4.0000 </r>
       <r>   -40.2372     0.0000     4.0000 </r>
       <r>   -40.0405     0.0000     4.0000 </r>
       <r>   -39.8437     0.0000     4.0000 </r>
       <r>   -39.6470     0.0000     4.0000 </r>
       <r>   -39.4503     0.0000     4.0000 </r>
       <r>   -39.2535     0.0000     4.0000 </r>
       <r>   -39.0568     0.0000     4.0000 </r>
       <r>   -38.8601     0.0000     4.0000 </r>
       <r>   -38.6633     0.0000     4.0000 </r>
       <r>   -38.4666     0.0000     4.0000 </r>
       <r>   -38.2698     0.0000     4.0000 </r>
       <r>   -38.0731     0.0000     4.0000 </r>
       <r>   -37.8764     0.0000     4.0000 </r>
       <r>   -37.6796     0.0000     4.0000 </r>
       <r>   -37.4829     0.0000     4.0000 </r>
       <r>   -37.2861     0.0000     4.0000 </r>
       <r>   -37.0894     0.0000     4.0000 </r>
       <r>   -36.8927     0.0000     4.0000 </r>
       <r>   -36.6959     0.0000     4.0000 </r>
       <r>   -36.4992     0.0000     4.0000 </r>
       <r>   -36.3025     0.0000     4.0000 </r>
       <r>   -36.1057     0.0000     4.0000 </r>
       <r>   -35.9090     0.0000     4.0000 </r>
       <r>   -35.7122     0.0000     4.0000 </r>
       <r>   -35.5155     0.0000     4.0000 </r>
       <r>   -35.3188     0.0000     4.0000 </r>
       <r>   -35.1220     0.0000     4.0000 </r>
       <r>   -34.9253     0.0000     4.0000 </r>
       <r>   -34.7285     0.0000     4.0000 </r>
       <r>   -34.5318     0.0000     4.0000 </r>
       <r>   -34.3351     0.0000     4.0000 </r>
       <r>   -34.1383     0.0000     4.0000 </r>
       <r>   -33.9416     0.0000     4.0000 </r>
       <r>   -33.7448     0.0000     4.0000 </r>
       <r>   -33.5481     0.0000     4.0000 </r>
       <r>   -33.3514     0.0000     4.0000 </r>
       <r>   -33.1546     0.0000     4.0000 </r>
       <r>   -32.9579     0.0000     4.0000 </r>
       <r>   -32.7612     0.0000     4.0000 </r>
       <r>   -32.5644     0.0000     4.0000 </r>
       <r>   -32.3677     0.0000     4.0000 </r>
       <r>   -32.1709     0.0000     4.0000 </r>
       <r>   -31.9742     0.0000     4.0000 </r>
       <r>   -31.7775     0.0000     4.0000 </r>
       <r>   -31.5807     0.0000     4.0000 </r>
       <r>   -31.3840     0.0000     4.0000 </r>
       <r>   -31.1872     0.0000     4.0000 </r>
       <r>   -30.9905     0.0000     4.0000 </r>
       <r>   -30.7938     0.0000     4.0000 </r>
       <r>   -30.5970     0.0000     4.0000 </r>
       <r>   -30.4003     0.0000     4.0000 </r>
       <r>   -30.2036     0.0000     4.0000 </r>
       <r>   -30.0068     0.0000     4.0000 </r>
       <r>   -29.8101     0.0000     4.0000 </r>
       <r>   -29.6133     0.0000     4.0000 </r>
       <r>   -29.4166     0.0000     4.0000 </r>
       <r>   -29.2199     0.0000     4.0000 </r>
       <r>   -29.0231     0.0000     4.0000 </r>
       <r>   -28.8264     0.0000     4.0000 </r>
       <r>   -28.6296     0.0000     4.0000 </r>
       <r>   -28.4329     0.0000     4.0000 </r>
       <r>   -28.2362     0.0000     4.0000 </r>
       <r>   -28.0394     0.0000     4.0000 </r>
       <r>   -27.8427     0.0000     4.0000 </r>
       <r>   -27.6459     0.0000     4.0000 </r>
       <r>   -27.4492     0.0000     4.0000 </r>
       <r>   -27.2525     0.0000     4.0000 </r>
       <r>   -27.0557     0.0000     4.0000 </r>
       <r>   -26.8590     0.0000     4.0000 </r>
       <r>   -26.6623     0.0000     4.0000 </r>
       <r>   -26.4655     0.0000     4.0000 </r>
       <r>   -26.2688     0.0000     4.0000 </r>
       <r>   -26.0720     0.0000     4.0000 </r>
       <r>   -25.8753     0.0000     4.0000 </r>
       <r>   -25.6786     0.0000     4.0000 </r>
       <r>   -25.4818     0.0000     4.0000 </r>
       <r>   -25.2851     0.0000     4.0000 </r>
       <r>   -25.0883     0.0000     4.0000 </r>
       <r>   -24.8916     0.0000     4.0000 </r>
       <r>   -24.6949     0.0000     4.0000 </r>
       <r>   -24.4981     0.0000     4.0000 </r>
       <r>   -24.3014     0.0000     4.0000 </r>
       <r>   -24.1047     0.0000     4.0000 </r>
       <r>   -23.9079     0.0000     4.0000 </r>
       <r>   -23.7112     0.0000     4.0000 </r>
       <r>   -23.5144     0.0000     4.0000 </r>
       <r>   -23.3177     0.0000     4.0000 </r>
       <r>   -23.1210     0.0000     4.0000 </r>
       <r>   -22.9242     0.0000     4.0000 </r>
       <r>   -22.7275     0.0000     4.0000 </r>
       <r>   -22.5307     0.0000     4.0000 </r>
       <r>   -22.3340     0.0000     4.0000 </r>
       <r>   -22.1373     0.0000     4.0000 </r>
       <r>   -21.9405     0.0000     4.0000 </r>
       <r>   -21.7438     0.0000     4.0000 </r>
       <r>   -21.5470     0.0000     4.0000 </r>
       <r>   -21.3503     0.0000     4.0000 </r>
       <r>   -21.1536     0.0000     4.0000 </r>
       <r>   -20.9568     0.0111     4.0022 </r>
       <r>   -20.7601    30.0452     9.9132 </r>
       <r>   -20.5634     0.4410    10.0000 </r>
       <r>   -20.3666     0.0000    10.0000 </r>
       <r>   -20.1699     0.0000    10.0000 </r>
       <r>   -19.9731     0.0000    10.0000 </r>
       <r>   -19.7764     0.0000    10.0000 </r>
       <r>   -19.5797     0.0000    10.0000 </r>
       <r>   -19.3829     0.0000    10.0000 </r>
       <r>   -19.1862     0.0000    10.0000 </r>
       <r>   -18.9894     0.0000    10.0000 </r>
       <r>   -18.7927     0.0000    10.0000 </r>
       <r>   -18.5960     0.0000    10.0000 </r>
       <r>   -18.3992     0.0000    10.0000 </r>
       <r>   -18.2025     0.0000    10.0000 </r>
       <r>   -18.0058     0.0000    10.0000 </r>
       <r>   -17.8090     0.0000    10.0000 </r>
       <r>   -17.6123     0.0000    10.0000 </r>
       <r>   -17.4155     0.0000    10.0000 </r>
       <r>   -17.2188     0.0000    10.0000 </r>
       <r>   -17.0221     0.0000    10.0000 </r>
       <r>   -16.8253     0.0000    10.0000 </r>
       <r>   -16.6286     0.0000    10.0000 </r>
       <r>   -16.4318     0.0000    10.0000 </r>
       <r>   -16.2351     0.0000    10.0000 </r>
       <r>   -16.0384     0.0000    10.0000 </r>
       <r>   -15.8416     0.0000    10.0000 </r>
       <r>   -15.6449     0.0000    10.0000 </r>
       <r>   -15.4481     0.0000    10.0000 </r>
       <r>   -15.2514     0.0000    10.0000 </r>
       <r>   -15.0547     0.0000    10.0000 </r>
       <r>   -14.8579     0.0000    10.0000 </r>
       <r>   -14.6612     0.0000    10.0000 </r>
       <r>   -14.4645     0.0000    10.0000 </r>
       <r>   -14.2677     0.0000    10.0000 </r>
       <r>   -14.0710     0.0000    10.0000 </r>
       <r>   -13.8742     0.0000    10.0000 </r>
       <r>   -13.6775     0.0000    10.0000 </r>
       <r>   -13.4808     0.0000    10.0000 </r>
       <r>   -13.2840     0.0000    10.0000 </r>
       <r>   -13.0873     0.0000    10.0000 </r>
       <r>   -12.8905     0.0000    10.0000 </r>
       <r>   -12.6938     0.0000    10.0000 </r>
       <r>   -12.4971     0.0000    10.0000 </r>
       <r>   -12.3003     0.0000    10.0000 </r>
       <r>   -12.1036     0.0000    10.0000 </r>
       <r>   -11.9069     0.0000    10.0000 </r>
       <r>   -11.7101     0.0000    10.0000 </r>
       <r>   -11.5134     0.0000    10.0000 </r>
       <r>   -11.3166     0.0000    10.0000 </r>
       <r>   -11.1199     0.0000    10.0000 </r>
       <r>   -10.9232     0.0000    10.0000 </r>
       <r>   -10.7264     0.0000    10.0000 </r>
       <r>   -10.5297     0.0000    10.0000 </r>
       <r>   -10.3329     0.0000    10.0000 </r>
       <r>   -10.1362     0.0000    10.0000 </r>
       <r>    -9.9395     0.0000    10.0000 </r>
       <r>    -9.7427     0.0000    10.0000 </r>
       <r>    -9.5460     0.0000    10.0000 </r>
       <r>    -9.3492     0.0000    10.0000 </r>
       <r>    -9.1525     0.0000    10.0000 </r>
       <r>    -8.9558     0.0000    10.0000 </r>
       <r>    -8.7590     0.0000    10.0000 </r>
       <r>    -8.5623     0.0000    10.0000 </r>
       <r>    -8.3656     0.0000    10.0000 </r>
       <r>    -8.1688     0.0000    10.0000 </r>
       <r>    -7.9721     0.0000    10.0000 </r>
       <r>    -7.7753     0.0000    10.0000 </r>
       <r>    -7.5786     0.0000    10.0000 </r>
       <r>    -7.3819     0.0000    10.0000 </r>
       <r>    -7.1851     0.0000    10.0000 </r>
       <r>    -6.9884     0.0000    10.0000 </r>
       <r>    -6.7916     0.0000    10.0000 </r>
       <r>    -6.5949     0.0000    10.0000 </r>
       <r>    -6.3982     0.0000    10.0000 </r>
       <r>    -6.2014     0.0000    10.0000 </r>
       <r>    -6.0047     0.0000    10.0000 </r>
       <r>    -5.8080     0.0000    10.0000 </r>
       <r>    -5.6112     0.0000    10.0000 </r>
       <r>    -5.4145     0.0169    10.0033 </r>
       <r>    -5.2177     0.4839    10.0985 </r>
       <r>    -5.0210     1.1690    10.3285 </r>
       <r>    -4.8243     2.5176    10.8238 </r>
       <r>    -4.6275     5.4635    11.8987 </r>
       <r>    -4.4308     0.5148    12.0000 </r>
       <r>    -4.2340     0.0000    12.0000 </r>
       <r>    -4.0373     0.0000    12.0000 </r>
       <r>    -3.8406     0.0000    12.0000 </r>
       <r>    -3.6438     0.0000    12.0000 </r>
       <r>    -3.4471     0.0000    12.0000 </r>
       <r>    -3.2503     0.0000    12.0000 </r>
       <r>    -3.0536     0.0000    12.0000 </r>
       <r>    -2.8569     0.0000    12.0000 </r>
       <r>    -2.6601     0.0000    12.0000 </r>
       <r>    -2.4634     0.0000    12.0000 </r>
       <r>    -2.2667     0.0000    12.0000 </r>
       <r>    -2.0699     0.0000    12.0000 </r>
       <r>    -1.8732     0.0000    12.0000 </r>
       <r>    -1.6764     0.0000    12.0000 </r>
       <r>    -1.4797     0.0000    12.0000 </r>
       <r>    -1.2830     0.0000    12.0000 </r>
       <r>    -1.0862     0.0000    12.0000 </r>
       <r>    -0.8895     0.0000    12.0000 </r>
       <r>    -0.6927     0.0000    12.0000 </r>
       <r>    -0.4960     0.0000    12.0000 </r>
       <r>    -0.2993     0.0000    12.0000 </r>
       <r>    -0.1025     0.0004    12.0001 </r>
       <r>     0.0942     0.1516    12.0299 </r>
       <r>     0.2909     1.0551    12.2375 </r>
       <r>     0.4877     1.1072    12.4553 </r>
       <r>     0.6844     2.7539    12.9971 </r>
       <r>     0.8812     2.2128    13.4325 </r>
       <r>     1.0779     1.3299    13.6941 </r>
       <r>     1.2746     1.7725    14.0428 </r>
       <r>     1.4714     1.1998    14.2789 </r>
       <r>     1.6681     1.7372    14.6206 </r>
       <r>     1.8649     3.5929    15.3275 </r>
       <r>     2.0616     1.8424    15.6900 </r>
       <r>     2.2583     2.3749    16.1572 </r>
       <r>     2.4551     2.8640    16.7207 </r>
       <r>     2.6518     1.6703    17.0493 </r>
       <r>     2.8486     2.3847    17.5184 </r>
       <r>     3.0453     0.8742    17.6904 </r>
       <r>     3.2420     0.9581    17.8789 </r>
       <r>     3.4388     0.5215    17.9815 </r>
       <r>     3.6355     0.0938    18.0000 </r>
       <r>     3.8322     0.0001    18.0000 </r>
       <r>     4.0290     0.0000    18.0000 </r>
       <r>     4.2257     0.0351    18.0069 </r>
       <r>     4.4225     0.0245    18.0117 </r>
       <r>     4.6192     0.1343    18.0381 </r>
       <r>     4.8159     0.4613    18.1289 </r>
       <r>     5.0127     0.0780    18.1443 </r>
       <r>     5.2094     0.4125    18.2254 </r>
       <r>     5.4062     1.2986    18.4809 </r>
       <r>     5.6029     0.3884    18.5573 </r>
       <r>     5.7996     1.4985    18.8521 </r>
       <r>     5.9964     1.6789    19.1824 </r>
       <r>     6.1931     3.2678    19.8253 </r>
       <r>     6.3898     2.0222    20.2232 </r>
       <r>     6.5866     2.3224    20.6801 </r>
       <r>     6.7833     4.3677    21.5394 </r>
       <r>     6.9801     2.0847    21.9495 </r>
       <r>     7.1768     1.4085    22.2266 </r>
       <r>     7.3735     1.3903    22.5001 </r>
       <r>     7.5703     2.8613    23.0631 </r>
       <r>     7.7670     1.5174    23.3616 </r>
       <r>     7.9638     1.7132    23.6986 </r>
       <r>     8.1605     2.7360    24.2369 </r>
       <r>     8.3572     2.1749    24.6648 </r>
       <r>     8.5540     0.4728    24.7578 </r>
       <r>     8.7507     0.0001    24.7578 </r>
       <r>     8.9475     0.3628    24.8292 </r>
       <r>     9.1442     2.2394    25.2698 </r>
       <r>     9.3409     1.6845    25.6012 </r>
       <r>     9.5377     0.0802    25.6170 </r>
       <r>     9.7344     1.5828    25.9284 </r>
       <r>     9.9311     0.2448    25.9766 </r>
       <r>    10.1279     0.0000    25.9766 </r>
       <r>    10.3246     0.0000    25.9766 </r>
       <r>    10.5214     0.0000    25.9766 </r>
       <r>    10.7181     0.0026    25.9771 </r>
       <r>    10.9148     0.1165    26.0000 </r>
       <r>    11.1116     0.0000    26.0000 </r>
       <r>    11.3083     0.0000    26.0000 </r>
       <r>    11.5051     0.0000    26.0000 </r>
       <r>    11.7018     0.0000    26.0000 </r>
       <r>    11.8985     0.0000    26.0000 </r>
       <r>    12.0953     0.0000    26.0000 </r>
       <r>    12.2920     0.0000    26.0000 </r>
       <r>    12.4887     0.0000    26.0000 </r>
       <r>    12.6855     0.0000    26.0000 </r>
       <r>    12.8822     0.0000    26.0000 </r>
       <r>    13.0790     0.0000    26.0000 </r>
       <r>    13.2757     0.0000    26.0000 </r>
       <r>    13.4724     0.0000    26.0000 </r>
      </set>
     </set>
    </array>
   </total>
  </dos>
 </calculation>
 <structure name="finalpos" >
  <crystal>
   <varray name="basis" >
    <v>       3.41883334      -3.41883334      -0.00000000 </v>
    <v>      -3.41883334      -0.00000000      -3.41883334 </v>
    <v>       3.41883334       3.41883334      -0.00000000 </v>
   </varray>
   <i name="volume">     79.92152976 </i>
   <varray name="rec_basis" >
    <v>       0.14624872      -0.14624872      -0.14624872 </v>
    <v>      -0.00000000      -0.00000000      -0.29249744 </v>
    <v>       0.14624872       0.14624872      -0.14624872 </v>
   </varray>
  </crystal>
  <varray name="positions" >
   <v>       0.74999822       0.49999882       0.24999941 </v>
   <v>       0.24999941       0.49999882       0.74999822 </v>
   <v>       0.50000030       0.00000000       0.50000030 </v>
   <v>       0.00000000       0.00000000      -0.00000000 </v>
  </varray>
 </structure>
</modeling>
