unknown system                          
           1
     3.378108   -3.378108    0.000000
    -3.378108    0.000000   -3.378108
     3.378108    3.378108    0.000000
   Li   Na   Sb
   2   1   1
Direct configuration=     1
   0.74999822  0.49999882  0.24999941
   0.24999941  0.49999882  0.74999822
   0.50000030  0.00000000  0.50000030
   0.00000000  0.00000000  0.00000000
unknown system                          
           1
     3.401094   -3.401094   -0.000000
    -3.401094   -0.000000   -3.401094
     3.401094    3.401094   -0.000000
   Li   Na   Sb
   2   1   1
Direct configuration=     2
   0.74999822  0.49999882  0.24999941
   0.24999941  0.49999882  0.74999822
   0.50000030  0.00000000  0.50000030
   0.00000000  0.00000000 -0.00000000
unknown system                          
           1
     3.414192   -3.414192   -0.000000
    -3.414192   -0.000000   -3.414192
     3.414192    3.414192   -0.000000
   Li   Na   Sb
   2   1   1
Direct configuration=     3
   0.74999822  0.49999882  0.24999941
   0.24999941  0.49999882  0.74999822
   0.50000030  0.00000000  0.50000030
   0.00000000  0.00000000 -0.00000000
unknown system                          
           1
     3.418554   -3.418554   -0.000000
    -3.418554   -0.000000   -3.418554
     3.418554    3.418554   -0.000000
   Li   Na   Sb
   2   1   1
Direct configuration=     4
   0.74999822  0.49999882  0.24999941
   0.24999941  0.49999882  0.74999822
   0.50000030  0.00000000  0.50000030
   0.00000000  0.00000000 -0.00000000
unknown system                          
           1
     3.419204   -3.419204   -0.000000
    -3.419204   -0.000000   -3.419204
     3.419204    3.419204   -0.000000
   Li   Na   Sb
   2   1   1
Direct configuration=     5
   0.74999822  0.49999882  0.24999941
   0.24999941  0.49999882  0.74999822
   0.50000030  0.00000000  0.50000030
   0.00000000  0.00000000 -0.00000000
unknown system                          
           1
     3.418833   -3.418833   -0.000000
    -3.418833   -0.000000   -3.418833
     3.418833    3.418833   -0.000000
   Li   Na   Sb
   2   1   1
Direct configuration=     6
   0.74999822  0.49999882  0.24999941
   0.24999941  0.49999882  0.74999822
   0.50000030  0.00000000  0.50000030
   0.00000000  0.00000000 -0.00000000
